LAMMPS (5 Nov 2014)
dimension          2
units              si
atom_style         meso/multiphase
newton				off
boundary		   f f p

variable		   xlow equal  -0.1
variable		   xhig equal  0.1
variable		   ylow equal  -0.1
variable		   yhig equal  0.1
variable		   zlow equal -1e-4
variable		   zhig equal  1e-4

variable		   shift equal  (${xhig}-${xlow})*0.205
variable		   shift equal  (0.1-${xlow})*0.205
variable		   shift equal  (0.1--0.1)*0.205

# create simulation box
region             box block ${xlow} ${xhig} ${ylow} ${yhig} ${zlow} ${zhig} units box
region             box block -0.1 ${xhig} ${ylow} ${yhig} ${zlow} ${zhig} units box
region             box block -0.1 0.1 ${ylow} ${yhig} ${zlow} ${zhig} units box
region             box block -0.1 0.1 -0.1 ${yhig} ${zlow} ${zhig} units box
region             box block -0.1 0.1 -0.1 0.1 ${zlow} ${zhig} units box
region             box block -0.1 0.1 -0.1 0.1 -0.0001 ${zhig} units box
region             box block -0.1 0.1 -0.1 0.1 -0.0001 0.0001 units box
create_box         1 box
Created orthogonal box = (-0.1 -0.1 -0.0001) to (0.1 0.1 0.0001)
  2 by 2 by 1 MPI processor grid


variable		   lat equal 5e-4
# we are using cubicspline kernel
variable		   h equal ${lat}*1.5
variable		   h equal 0.0005*1.5
variable		   cutoff equal ${h}*2
variable		   cutoff equal 0.00075*2

include			   ring1.csv
create_atoms 1 single    -0.081000000000000003	0.0	0.0
Created 1 atoms
create_atoms 1 single    -0.080500000000000002	-0.0059999999999999984	0.0
Created 1 atoms
create_atoms 1 single    -0.080500000000000002	-0.0054999999999999979	0.0
Created 1 atoms
create_atoms 1 single    -0.080500000000000002	-0.0049999999999999975	0.0
Created 1 atoms
create_atoms 1 single    -0.080500000000000002	-0.0044999999999999971	0.0
Created 1 atoms
create_atoms 1 single    -0.080500000000000002	-0.0039999999999999966	0.0
Created 1 atoms
create_atoms 1 single    -0.080500000000000002	-0.0035000000000000031	0.0
Created 1 atoms
create_atoms 1 single    -0.080500000000000002	-0.0030000000000000027	0.0
Created 1 atoms
create_atoms 1 single    -0.080500000000000002	-0.0025000000000000022	0.0
Created 1 atoms
create_atoms 1 single    -0.080500000000000002	-0.0020000000000000018	0.0
Created 1 atoms
create_atoms 1 single    -0.080500000000000002	-0.0015000000000000013	0.0
Created 1 atoms
create_atoms 1 single    -0.080500000000000002	-0.0010000000000000009	0.0
Created 1 atoms
create_atoms 1 single    -0.080500000000000002	-0.00050000000000000044	0.0
Created 1 atoms
create_atoms 1 single    -0.080500000000000002	0.0	0.0
Created 1 atoms
create_atoms 1 single    -0.080500000000000002	0.00050000000000000044	0.0
Created 1 atoms
create_atoms 1 single    -0.080500000000000002	0.0010000000000000009	0.0
Created 1 atoms
create_atoms 1 single    -0.080500000000000002	0.0015000000000000013	0.0
Created 1 atoms
create_atoms 1 single    -0.080500000000000002	0.0020000000000000018	0.0
Created 1 atoms
create_atoms 1 single    -0.080500000000000002	0.0025000000000000022	0.0
Created 1 atoms
create_atoms 1 single    -0.080500000000000002	0.0030000000000000027	0.0
Created 1 atoms
create_atoms 1 single    -0.080500000000000002	0.0035000000000000031	0.0
Created 1 atoms
create_atoms 1 single    -0.080500000000000002	0.0039999999999999966	0.0
Created 1 atoms
create_atoms 1 single    -0.080500000000000002	0.0044999999999999971	0.0
Created 1 atoms
create_atoms 1 single    -0.080500000000000002	0.0049999999999999975	0.0
Created 1 atoms
create_atoms 1 single    -0.080500000000000002	0.0054999999999999979	0.0
Created 1 atoms
create_atoms 1 single    -0.080500000000000002	0.0059999999999999984	0.0
Created 1 atoms
create_atoms 1 single    -0.080000000000000002	-0.0085000000000000006	0.0
Created 1 atoms
create_atoms 1 single    -0.080000000000000002	-0.0080000000000000002	0.0
Created 1 atoms
create_atoms 1 single    -0.080000000000000002	-0.0074999999999999997	0.0
Created 1 atoms
create_atoms 1 single    -0.080000000000000002	-0.0069999999999999993	0.0
Created 1 atoms
create_atoms 1 single    -0.080000000000000002	-0.0064999999999999988	0.0
Created 1 atoms
create_atoms 1 single    -0.080000000000000002	-0.0059999999999999984	0.0
Created 1 atoms
create_atoms 1 single    -0.080000000000000002	-0.0054999999999999979	0.0
Created 1 atoms
create_atoms 1 single    -0.080000000000000002	-0.0049999999999999975	0.0
Created 1 atoms
create_atoms 1 single    -0.080000000000000002	-0.0044999999999999971	0.0
Created 1 atoms
create_atoms 1 single    -0.080000000000000002	-0.0039999999999999966	0.0
Created 1 atoms
create_atoms 1 single    -0.080000000000000002	-0.0035000000000000031	0.0
Created 1 atoms
create_atoms 1 single    -0.080000000000000002	-0.0030000000000000027	0.0
Created 1 atoms
create_atoms 1 single    -0.080000000000000002	-0.0025000000000000022	0.0
Created 1 atoms
create_atoms 1 single    -0.080000000000000002	-0.0020000000000000018	0.0
Created 1 atoms
create_atoms 1 single    -0.080000000000000002	-0.0015000000000000013	0.0
Created 1 atoms
create_atoms 1 single    -0.080000000000000002	-0.0010000000000000009	0.0
Created 1 atoms
create_atoms 1 single    -0.080000000000000002	-0.00050000000000000044	0.0
Created 1 atoms
create_atoms 1 single    -0.080000000000000002	0.0	0.0
Created 1 atoms
create_atoms 1 single    -0.080000000000000002	0.00050000000000000044	0.0
Created 1 atoms
create_atoms 1 single    -0.080000000000000002	0.0010000000000000009	0.0
Created 1 atoms
create_atoms 1 single    -0.080000000000000002	0.0015000000000000013	0.0
Created 1 atoms
create_atoms 1 single    -0.080000000000000002	0.0020000000000000018	0.0
Created 1 atoms
create_atoms 1 single    -0.080000000000000002	0.0025000000000000022	0.0
Created 1 atoms
create_atoms 1 single    -0.080000000000000002	0.0030000000000000027	0.0
Created 1 atoms
create_atoms 1 single    -0.080000000000000002	0.0035000000000000031	0.0
Created 1 atoms
create_atoms 1 single    -0.080000000000000002	0.0039999999999999966	0.0
Created 1 atoms
create_atoms 1 single    -0.080000000000000002	0.0044999999999999971	0.0
Created 1 atoms
create_atoms 1 single    -0.080000000000000002	0.0049999999999999975	0.0
Created 1 atoms
create_atoms 1 single    -0.080000000000000002	0.0054999999999999979	0.0
Created 1 atoms
create_atoms 1 single    -0.080000000000000002	0.0059999999999999984	0.0
Created 1 atoms
create_atoms 1 single    -0.080000000000000002	0.0064999999999999988	0.0
Created 1 atoms
create_atoms 1 single    -0.080000000000000002	0.0069999999999999993	0.0
Created 1 atoms
create_atoms 1 single    -0.080000000000000002	0.0074999999999999997	0.0
Created 1 atoms
create_atoms 1 single    -0.080000000000000002	0.0080000000000000002	0.0
Created 1 atoms
create_atoms 1 single    -0.080000000000000002	0.0085000000000000006	0.0
Created 1 atoms
create_atoms 1 single    -0.079500000000000001	-0.010499999999999999	0.0
Created 1 atoms
create_atoms 1 single    -0.079500000000000001	-0.010000000000000002	0.0
Created 1 atoms
create_atoms 1 single    -0.079500000000000001	-0.0095000000000000015	0.0
Created 1 atoms
create_atoms 1 single    -0.079500000000000001	-0.0090000000000000011	0.0
Created 1 atoms
create_atoms 1 single    -0.079500000000000001	-0.0085000000000000006	0.0
Created 1 atoms
create_atoms 1 single    -0.079500000000000001	-0.0080000000000000002	0.0
Created 1 atoms
create_atoms 1 single    -0.079500000000000001	-0.0074999999999999997	0.0
Created 1 atoms
create_atoms 1 single    -0.079500000000000001	-0.0069999999999999993	0.0
Created 1 atoms
create_atoms 1 single    -0.079500000000000001	-0.0064999999999999988	0.0
Created 1 atoms
create_atoms 1 single    -0.079500000000000001	-0.0059999999999999984	0.0
Created 1 atoms
create_atoms 1 single    -0.079500000000000001	-0.0054999999999999979	0.0
Created 1 atoms
create_atoms 1 single    -0.079500000000000001	-0.0049999999999999975	0.0
Created 1 atoms
create_atoms 1 single    -0.079500000000000001	-0.0044999999999999971	0.0
Created 1 atoms
create_atoms 1 single    -0.079500000000000001	-0.0039999999999999966	0.0
Created 1 atoms
create_atoms 1 single    -0.079500000000000001	-0.0035000000000000031	0.0
Created 1 atoms
create_atoms 1 single    -0.079500000000000001	-0.0030000000000000027	0.0
Created 1 atoms
create_atoms 1 single    -0.079500000000000001	-0.0025000000000000022	0.0
Created 1 atoms
create_atoms 1 single    -0.079500000000000001	-0.0020000000000000018	0.0
Created 1 atoms
create_atoms 1 single    -0.079500000000000001	-0.0015000000000000013	0.0
Created 1 atoms
create_atoms 1 single    -0.079500000000000001	-0.0010000000000000009	0.0
Created 1 atoms
create_atoms 1 single    -0.079500000000000001	-0.00050000000000000044	0.0
Created 1 atoms
create_atoms 1 single    -0.079500000000000001	0.0	0.0
Created 1 atoms
create_atoms 1 single    -0.079500000000000001	0.00050000000000000044	0.0
Created 1 atoms
create_atoms 1 single    -0.079500000000000001	0.0010000000000000009	0.0
Created 1 atoms
create_atoms 1 single    -0.079500000000000001	0.0015000000000000013	0.0
Created 1 atoms
create_atoms 1 single    -0.079500000000000001	0.0020000000000000018	0.0
Created 1 atoms
create_atoms 1 single    -0.079500000000000001	0.0025000000000000022	0.0
Created 1 atoms
create_atoms 1 single    -0.079500000000000001	0.0030000000000000027	0.0
Created 1 atoms
create_atoms 1 single    -0.079500000000000001	0.0035000000000000031	0.0
Created 1 atoms
create_atoms 1 single    -0.079500000000000001	0.0039999999999999966	0.0
Created 1 atoms
create_atoms 1 single    -0.079500000000000001	0.0044999999999999971	0.0
Created 1 atoms
create_atoms 1 single    -0.079500000000000001	0.0049999999999999975	0.0
Created 1 atoms
create_atoms 1 single    -0.079500000000000001	0.0054999999999999979	0.0
Created 1 atoms
create_atoms 1 single    -0.079500000000000001	0.0059999999999999984	0.0
Created 1 atoms
create_atoms 1 single    -0.079500000000000001	0.0064999999999999988	0.0
Created 1 atoms
create_atoms 1 single    -0.079500000000000001	0.0069999999999999993	0.0
Created 1 atoms
create_atoms 1 single    -0.079500000000000001	0.0074999999999999997	0.0
Created 1 atoms
create_atoms 1 single    -0.079500000000000001	0.0080000000000000002	0.0
Created 1 atoms
create_atoms 1 single    -0.079500000000000001	0.0085000000000000006	0.0
Created 1 atoms
create_atoms 1 single    -0.079500000000000001	0.0090000000000000011	0.0
Created 1 atoms
create_atoms 1 single    -0.079500000000000001	0.0095000000000000015	0.0
Created 1 atoms
create_atoms 1 single    -0.079500000000000001	0.010000000000000002	0.0
Created 1 atoms
create_atoms 1 single    -0.079500000000000001	0.010500000000000002	0.0
Created 1 atoms
create_atoms 1 single    -0.079000000000000001	-0.012	0.0
Created 1 atoms
create_atoms 1 single    -0.079000000000000001	-0.0115	0.0
Created 1 atoms
create_atoms 1 single    -0.079000000000000001	-0.010999999999999999	0.0
Created 1 atoms
create_atoms 1 single    -0.079000000000000001	-0.010499999999999999	0.0
Created 1 atoms
create_atoms 1 single    -0.079000000000000001	-0.010000000000000002	0.0
Created 1 atoms
create_atoms 1 single    -0.079000000000000001	-0.0095000000000000015	0.0
Created 1 atoms
create_atoms 1 single    -0.079000000000000001	-0.0090000000000000011	0.0
Created 1 atoms
create_atoms 1 single    -0.079000000000000001	-0.0085000000000000006	0.0
Created 1 atoms
create_atoms 1 single    -0.079000000000000001	-0.0080000000000000002	0.0
Created 1 atoms
create_atoms 1 single    -0.079000000000000001	-0.0074999999999999997	0.0
Created 1 atoms
create_atoms 1 single    -0.079000000000000001	-0.0069999999999999993	0.0
Created 1 atoms
create_atoms 1 single    -0.079000000000000001	-0.0064999999999999988	0.0
Created 1 atoms
create_atoms 1 single    -0.079000000000000001	-0.0059999999999999984	0.0
Created 1 atoms
create_atoms 1 single    -0.079000000000000001	-0.0054999999999999979	0.0
Created 1 atoms
create_atoms 1 single    -0.079000000000000001	-0.0049999999999999975	0.0
Created 1 atoms
create_atoms 1 single    -0.079000000000000001	-0.0044999999999999971	0.0
Created 1 atoms
create_atoms 1 single    -0.079000000000000001	-0.0039999999999999966	0.0
Created 1 atoms
create_atoms 1 single    -0.079000000000000001	-0.0035000000000000031	0.0
Created 1 atoms
create_atoms 1 single    -0.079000000000000001	-0.0030000000000000027	0.0
Created 1 atoms
create_atoms 1 single    -0.079000000000000001	-0.0025000000000000022	0.0
Created 1 atoms
create_atoms 1 single    -0.079000000000000001	-0.0020000000000000018	0.0
Created 1 atoms
create_atoms 1 single    -0.079000000000000001	-0.0015000000000000013	0.0
Created 1 atoms
create_atoms 1 single    -0.079000000000000001	-0.0010000000000000009	0.0
Created 1 atoms
create_atoms 1 single    -0.079000000000000001	-0.00050000000000000044	0.0
Created 1 atoms
create_atoms 1 single    -0.079000000000000001	0.0	0.0
Created 1 atoms
create_atoms 1 single    -0.079000000000000001	0.00050000000000000044	0.0
Created 1 atoms
create_atoms 1 single    -0.079000000000000001	0.0010000000000000009	0.0
Created 1 atoms
create_atoms 1 single    -0.079000000000000001	0.0015000000000000013	0.0
Created 1 atoms
create_atoms 1 single    -0.079000000000000001	0.0020000000000000018	0.0
Created 1 atoms
create_atoms 1 single    -0.079000000000000001	0.0025000000000000022	0.0
Created 1 atoms
create_atoms 1 single    -0.079000000000000001	0.0030000000000000027	0.0
Created 1 atoms
create_atoms 1 single    -0.079000000000000001	0.0035000000000000031	0.0
Created 1 atoms
create_atoms 1 single    -0.079000000000000001	0.0039999999999999966	0.0
Created 1 atoms
create_atoms 1 single    -0.079000000000000001	0.0044999999999999971	0.0
Created 1 atoms
create_atoms 1 single    -0.079000000000000001	0.0049999999999999975	0.0
Created 1 atoms
create_atoms 1 single    -0.079000000000000001	0.0054999999999999979	0.0
Created 1 atoms
create_atoms 1 single    -0.079000000000000001	0.0059999999999999984	0.0
Created 1 atoms
create_atoms 1 single    -0.079000000000000001	0.0064999999999999988	0.0
Created 1 atoms
create_atoms 1 single    -0.079000000000000001	0.0069999999999999993	0.0
Created 1 atoms
create_atoms 1 single    -0.079000000000000001	0.0074999999999999997	0.0
Created 1 atoms
create_atoms 1 single    -0.079000000000000001	0.0080000000000000002	0.0
Created 1 atoms
create_atoms 1 single    -0.079000000000000001	0.0085000000000000006	0.0
Created 1 atoms
create_atoms 1 single    -0.079000000000000001	0.0090000000000000011	0.0
Created 1 atoms
create_atoms 1 single    -0.079000000000000001	0.0095000000000000015	0.0
Created 1 atoms
create_atoms 1 single    -0.079000000000000001	0.010000000000000002	0.0
Created 1 atoms
create_atoms 1 single    -0.079000000000000001	0.010500000000000002	0.0
Created 1 atoms
create_atoms 1 single    -0.079000000000000001	0.011000000000000003	0.0
Created 1 atoms
create_atoms 1 single    -0.079000000000000001	0.011500000000000003	0.0
Created 1 atoms
create_atoms 1 single    -0.079000000000000001	0.012000000000000004	0.0
Created 1 atoms
create_atoms 1 single    -0.0785	-0.013500000000000002	0.0
Created 1 atoms
create_atoms 1 single    -0.0785	-0.013000000000000001	0.0
Created 1 atoms
create_atoms 1 single    -0.0785	-0.012500000000000001	0.0
Created 1 atoms
create_atoms 1 single    -0.0785	-0.012	0.0
Created 1 atoms
create_atoms 1 single    -0.0785	-0.0115	0.0
Created 1 atoms
create_atoms 1 single    -0.0785	-0.010999999999999999	0.0
Created 1 atoms
create_atoms 1 single    -0.0785	-0.010499999999999999	0.0
Created 1 atoms
create_atoms 1 single    -0.0785	-0.010000000000000002	0.0
Created 1 atoms
create_atoms 1 single    -0.0785	-0.0095000000000000015	0.0
Created 1 atoms
create_atoms 1 single    -0.0785	-0.0090000000000000011	0.0
Created 1 atoms
create_atoms 1 single    -0.0785	-0.0085000000000000006	0.0
Created 1 atoms
create_atoms 1 single    -0.0785	-0.0080000000000000002	0.0
Created 1 atoms
create_atoms 1 single    -0.0785	-0.0074999999999999997	0.0
Created 1 atoms
create_atoms 1 single    -0.0785	-0.0069999999999999993	0.0
Created 1 atoms
create_atoms 1 single    -0.0785	-0.0064999999999999988	0.0
Created 1 atoms
create_atoms 1 single    -0.0785	-0.0059999999999999984	0.0
Created 1 atoms
create_atoms 1 single    -0.0785	-0.0054999999999999979	0.0
Created 1 atoms
create_atoms 1 single    -0.0785	-0.0049999999999999975	0.0
Created 1 atoms
create_atoms 1 single    -0.0785	-0.0044999999999999971	0.0
Created 1 atoms
create_atoms 1 single    -0.0785	-0.0039999999999999966	0.0
Created 1 atoms
create_atoms 1 single    -0.0785	-0.0035000000000000031	0.0
Created 1 atoms
create_atoms 1 single    -0.0785	-0.0030000000000000027	0.0
Created 1 atoms
create_atoms 1 single    -0.0785	-0.0025000000000000022	0.0
Created 1 atoms
create_atoms 1 single    -0.0785	-0.0020000000000000018	0.0
Created 1 atoms
create_atoms 1 single    -0.0785	-0.0015000000000000013	0.0
Created 1 atoms
create_atoms 1 single    -0.0785	-0.0010000000000000009	0.0
Created 1 atoms
create_atoms 1 single    -0.0785	-0.00050000000000000044	0.0
Created 1 atoms
create_atoms 1 single    -0.0785	0.0	0.0
Created 1 atoms
create_atoms 1 single    -0.0785	0.00050000000000000044	0.0
Created 1 atoms
create_atoms 1 single    -0.0785	0.0010000000000000009	0.0
Created 1 atoms
create_atoms 1 single    -0.0785	0.0015000000000000013	0.0
Created 1 atoms
create_atoms 1 single    -0.0785	0.0020000000000000018	0.0
Created 1 atoms
create_atoms 1 single    -0.0785	0.0025000000000000022	0.0
Created 1 atoms
create_atoms 1 single    -0.0785	0.0030000000000000027	0.0
Created 1 atoms
create_atoms 1 single    -0.0785	0.0035000000000000031	0.0
Created 1 atoms
create_atoms 1 single    -0.0785	0.0039999999999999966	0.0
Created 1 atoms
create_atoms 1 single    -0.0785	0.0044999999999999971	0.0
Created 1 atoms
create_atoms 1 single    -0.0785	0.0049999999999999975	0.0
Created 1 atoms
create_atoms 1 single    -0.0785	0.0054999999999999979	0.0
Created 1 atoms
create_atoms 1 single    -0.0785	0.0059999999999999984	0.0
Created 1 atoms
create_atoms 1 single    -0.0785	0.0064999999999999988	0.0
Created 1 atoms
create_atoms 1 single    -0.0785	0.0069999999999999993	0.0
Created 1 atoms
create_atoms 1 single    -0.0785	0.0074999999999999997	0.0
Created 1 atoms
create_atoms 1 single    -0.0785	0.0080000000000000002	0.0
Created 1 atoms
create_atoms 1 single    -0.0785	0.0085000000000000006	0.0
Created 1 atoms
create_atoms 1 single    -0.0785	0.0090000000000000011	0.0
Created 1 atoms
create_atoms 1 single    -0.0785	0.0095000000000000015	0.0
Created 1 atoms
create_atoms 1 single    -0.0785	0.010000000000000002	0.0
Created 1 atoms
create_atoms 1 single    -0.0785	0.010500000000000002	0.0
Created 1 atoms
create_atoms 1 single    -0.0785	0.011000000000000003	0.0
Created 1 atoms
create_atoms 1 single    -0.0785	0.011500000000000003	0.0
Created 1 atoms
create_atoms 1 single    -0.0785	0.012000000000000004	0.0
Created 1 atoms
create_atoms 1 single    -0.0785	0.012499999999999997	0.0
Created 1 atoms
create_atoms 1 single    -0.0785	0.012999999999999998	0.0
Created 1 atoms
create_atoms 1 single    -0.0785	0.013499999999999998	0.0
Created 1 atoms
create_atoms 1 single    -0.078	-0.014999999999999999	0.0
Created 1 atoms
create_atoms 1 single    -0.078	-0.014499999999999999	0.0
Created 1 atoms
create_atoms 1 single    -0.078	-0.013999999999999999	0.0
Created 1 atoms
create_atoms 1 single    -0.078	-0.013500000000000002	0.0
Created 1 atoms
create_atoms 1 single    -0.078	-0.013000000000000001	0.0
Created 1 atoms
create_atoms 1 single    -0.078	-0.012500000000000001	0.0
Created 1 atoms
create_atoms 1 single    -0.078	-0.012	0.0
Created 1 atoms
create_atoms 1 single    -0.078	-0.0115	0.0
Created 1 atoms
create_atoms 1 single    -0.078	-0.010999999999999999	0.0
Created 1 atoms
create_atoms 1 single    -0.078	-0.010499999999999999	0.0
Created 1 atoms
create_atoms 1 single    -0.078	-0.010000000000000002	0.0
Created 1 atoms
create_atoms 1 single    -0.078	-0.0095000000000000015	0.0
Created 1 atoms
create_atoms 1 single    -0.078	-0.0090000000000000011	0.0
Created 1 atoms
create_atoms 1 single    -0.078	-0.0085000000000000006	0.0
Created 1 atoms
create_atoms 1 single    -0.078	-0.0080000000000000002	0.0
Created 1 atoms
create_atoms 1 single    -0.078	-0.0074999999999999997	0.0
Created 1 atoms
create_atoms 1 single    -0.078	-0.0069999999999999993	0.0
Created 1 atoms
create_atoms 1 single    -0.078	-0.0064999999999999988	0.0
Created 1 atoms
create_atoms 1 single    -0.078	-0.0059999999999999984	0.0
Created 1 atoms
create_atoms 1 single    -0.078	-0.0054999999999999979	0.0
Created 1 atoms
create_atoms 1 single    -0.078	-0.0049999999999999975	0.0
Created 1 atoms
create_atoms 1 single    -0.078	-0.0044999999999999971	0.0
Created 1 atoms
create_atoms 1 single    -0.078	-0.0039999999999999966	0.0
Created 1 atoms
create_atoms 1 single    -0.078	-0.0035000000000000031	0.0
Created 1 atoms
create_atoms 1 single    -0.078	-0.0030000000000000027	0.0
Created 1 atoms
create_atoms 1 single    -0.078	-0.0025000000000000022	0.0
Created 1 atoms
create_atoms 1 single    -0.078	-0.0020000000000000018	0.0
Created 1 atoms
create_atoms 1 single    -0.078	-0.0015000000000000013	0.0
Created 1 atoms
create_atoms 1 single    -0.078	-0.0010000000000000009	0.0
Created 1 atoms
create_atoms 1 single    -0.078	-0.00050000000000000044	0.0
Created 1 atoms
create_atoms 1 single    -0.078	0.0	0.0
Created 1 atoms
create_atoms 1 single    -0.078	0.00050000000000000044	0.0
Created 1 atoms
create_atoms 1 single    -0.078	0.0010000000000000009	0.0
Created 1 atoms
create_atoms 1 single    -0.078	0.0015000000000000013	0.0
Created 1 atoms
create_atoms 1 single    -0.078	0.0020000000000000018	0.0
Created 1 atoms
create_atoms 1 single    -0.078	0.0025000000000000022	0.0
Created 1 atoms
create_atoms 1 single    -0.078	0.0030000000000000027	0.0
Created 1 atoms
create_atoms 1 single    -0.078	0.0035000000000000031	0.0
Created 1 atoms
create_atoms 1 single    -0.078	0.0039999999999999966	0.0
Created 1 atoms
create_atoms 1 single    -0.078	0.0044999999999999971	0.0
Created 1 atoms
create_atoms 1 single    -0.078	0.0049999999999999975	0.0
Created 1 atoms
create_atoms 1 single    -0.078	0.0054999999999999979	0.0
Created 1 atoms
create_atoms 1 single    -0.078	0.0059999999999999984	0.0
Created 1 atoms
create_atoms 1 single    -0.078	0.0064999999999999988	0.0
Created 1 atoms
create_atoms 1 single    -0.078	0.0069999999999999993	0.0
Created 1 atoms
create_atoms 1 single    -0.078	0.0074999999999999997	0.0
Created 1 atoms
create_atoms 1 single    -0.078	0.0080000000000000002	0.0
Created 1 atoms
create_atoms 1 single    -0.078	0.0085000000000000006	0.0
Created 1 atoms
create_atoms 1 single    -0.078	0.0090000000000000011	0.0
Created 1 atoms
create_atoms 1 single    -0.078	0.0095000000000000015	0.0
Created 1 atoms
create_atoms 1 single    -0.078	0.010000000000000002	0.0
Created 1 atoms
create_atoms 1 single    -0.078	0.010500000000000002	0.0
Created 1 atoms
create_atoms 1 single    -0.078	0.011000000000000003	0.0
Created 1 atoms
create_atoms 1 single    -0.078	0.011500000000000003	0.0
Created 1 atoms
create_atoms 1 single    -0.078	0.012000000000000004	0.0
Created 1 atoms
create_atoms 1 single    -0.078	0.012499999999999997	0.0
Created 1 atoms
create_atoms 1 single    -0.078	0.012999999999999998	0.0
Created 1 atoms
create_atoms 1 single    -0.078	0.013499999999999998	0.0
Created 1 atoms
create_atoms 1 single    -0.078	0.013999999999999999	0.0
Created 1 atoms
create_atoms 1 single    -0.078	0.014499999999999999	0.0
Created 1 atoms
create_atoms 1 single    -0.078	0.014999999999999999	0.0
Created 1 atoms
create_atoms 1 single    -0.077499999999999999	-0.016	0.0
Created 1 atoms
create_atoms 1 single    -0.077499999999999999	-0.0155	0.0
Created 1 atoms
create_atoms 1 single    -0.077499999999999999	-0.014999999999999999	0.0
Created 1 atoms
create_atoms 1 single    -0.077499999999999999	-0.014499999999999999	0.0
Created 1 atoms
create_atoms 1 single    -0.077499999999999999	-0.013999999999999999	0.0
Created 1 atoms
create_atoms 1 single    -0.077499999999999999	-0.013500000000000002	0.0
Created 1 atoms
create_atoms 1 single    -0.077499999999999999	-0.013000000000000001	0.0
Created 1 atoms
create_atoms 1 single    -0.077499999999999999	-0.012500000000000001	0.0
Created 1 atoms
create_atoms 1 single    -0.077499999999999999	-0.012	0.0
Created 1 atoms
create_atoms 1 single    -0.077499999999999999	-0.0115	0.0
Created 1 atoms
create_atoms 1 single    -0.077499999999999999	-0.010999999999999999	0.0
Created 1 atoms
create_atoms 1 single    -0.077499999999999999	-0.010499999999999999	0.0
Created 1 atoms
create_atoms 1 single    -0.077499999999999999	-0.010000000000000002	0.0
Created 1 atoms
create_atoms 1 single    -0.077499999999999999	-0.0095000000000000015	0.0
Created 1 atoms
create_atoms 1 single    -0.077499999999999999	-0.0090000000000000011	0.0
Created 1 atoms
create_atoms 1 single    -0.077499999999999999	-0.0085000000000000006	0.0
Created 1 atoms
create_atoms 1 single    -0.077499999999999999	-0.0080000000000000002	0.0
Created 1 atoms
create_atoms 1 single    -0.077499999999999999	-0.0074999999999999997	0.0
Created 1 atoms
create_atoms 1 single    -0.077499999999999999	-0.0069999999999999993	0.0
Created 1 atoms
create_atoms 1 single    -0.077499999999999999	-0.0064999999999999988	0.0
Created 1 atoms
create_atoms 1 single    -0.077499999999999999	-0.0059999999999999984	0.0
Created 1 atoms
create_atoms 1 single    -0.077499999999999999	-0.0054999999999999979	0.0
Created 1 atoms
create_atoms 1 single    -0.077499999999999999	-0.0049999999999999975	0.0
Created 1 atoms
create_atoms 1 single    -0.077499999999999999	-0.0044999999999999971	0.0
Created 1 atoms
create_atoms 1 single    -0.077499999999999999	-0.0039999999999999966	0.0
Created 1 atoms
create_atoms 1 single    -0.077499999999999999	-0.0035000000000000031	0.0
Created 1 atoms
create_atoms 1 single    -0.077499999999999999	-0.0030000000000000027	0.0
Created 1 atoms
create_atoms 1 single    -0.077499999999999999	-0.0025000000000000022	0.0
Created 1 atoms
create_atoms 1 single    -0.077499999999999999	-0.0020000000000000018	0.0
Created 1 atoms
create_atoms 1 single    -0.077499999999999999	-0.0015000000000000013	0.0
Created 1 atoms
create_atoms 1 single    -0.077499999999999999	-0.0010000000000000009	0.0
Created 1 atoms
create_atoms 1 single    -0.077499999999999999	-0.00050000000000000044	0.0
Created 1 atoms
create_atoms 1 single    -0.077499999999999999	0.0	0.0
Created 1 atoms
create_atoms 1 single    -0.077499999999999999	0.00050000000000000044	0.0
Created 1 atoms
create_atoms 1 single    -0.077499999999999999	0.0010000000000000009	0.0
Created 1 atoms
create_atoms 1 single    -0.077499999999999999	0.0015000000000000013	0.0
Created 1 atoms
create_atoms 1 single    -0.077499999999999999	0.0020000000000000018	0.0
Created 1 atoms
create_atoms 1 single    -0.077499999999999999	0.0025000000000000022	0.0
Created 1 atoms
create_atoms 1 single    -0.077499999999999999	0.0030000000000000027	0.0
Created 1 atoms
create_atoms 1 single    -0.077499999999999999	0.0035000000000000031	0.0
Created 1 atoms
create_atoms 1 single    -0.077499999999999999	0.0039999999999999966	0.0
Created 1 atoms
create_atoms 1 single    -0.077499999999999999	0.0044999999999999971	0.0
Created 1 atoms
create_atoms 1 single    -0.077499999999999999	0.0049999999999999975	0.0
Created 1 atoms
create_atoms 1 single    -0.077499999999999999	0.0054999999999999979	0.0
Created 1 atoms
create_atoms 1 single    -0.077499999999999999	0.0059999999999999984	0.0
Created 1 atoms
create_atoms 1 single    -0.077499999999999999	0.0064999999999999988	0.0
Created 1 atoms
create_atoms 1 single    -0.077499999999999999	0.0069999999999999993	0.0
Created 1 atoms
create_atoms 1 single    -0.077499999999999999	0.0074999999999999997	0.0
Created 1 atoms
create_atoms 1 single    -0.077499999999999999	0.0080000000000000002	0.0
Created 1 atoms
create_atoms 1 single    -0.077499999999999999	0.0085000000000000006	0.0
Created 1 atoms
create_atoms 1 single    -0.077499999999999999	0.0090000000000000011	0.0
Created 1 atoms
create_atoms 1 single    -0.077499999999999999	0.0095000000000000015	0.0
Created 1 atoms
create_atoms 1 single    -0.077499999999999999	0.010000000000000002	0.0
Created 1 atoms
create_atoms 1 single    -0.077499999999999999	0.010500000000000002	0.0
Created 1 atoms
create_atoms 1 single    -0.077499999999999999	0.011000000000000003	0.0
Created 1 atoms
create_atoms 1 single    -0.077499999999999999	0.011500000000000003	0.0
Created 1 atoms
create_atoms 1 single    -0.077499999999999999	0.012000000000000004	0.0
Created 1 atoms
create_atoms 1 single    -0.077499999999999999	0.012499999999999997	0.0
Created 1 atoms
create_atoms 1 single    -0.077499999999999999	0.012999999999999998	0.0
Created 1 atoms
create_atoms 1 single    -0.077499999999999999	0.013499999999999998	0.0
Created 1 atoms
create_atoms 1 single    -0.077499999999999999	0.013999999999999999	0.0
Created 1 atoms
create_atoms 1 single    -0.077499999999999999	0.014499999999999999	0.0
Created 1 atoms
create_atoms 1 single    -0.077499999999999999	0.014999999999999999	0.0
Created 1 atoms
create_atoms 1 single    -0.077499999999999999	0.0155	0.0
Created 1 atoms
create_atoms 1 single    -0.077499999999999999	0.016	0.0
Created 1 atoms
create_atoms 1 single    -0.077000000000000013	-0.017000000000000001	0.0
Created 1 atoms
create_atoms 1 single    -0.077000000000000013	-0.016500000000000001	0.0
Created 1 atoms
create_atoms 1 single    -0.077000000000000013	-0.016	0.0
Created 1 atoms
create_atoms 1 single    -0.077000000000000013	-0.0155	0.0
Created 1 atoms
create_atoms 1 single    -0.077000000000000013	-0.014999999999999999	0.0
Created 1 atoms
create_atoms 1 single    -0.077000000000000013	-0.014499999999999999	0.0
Created 1 atoms
create_atoms 1 single    -0.077000000000000013	-0.013999999999999999	0.0
Created 1 atoms
create_atoms 1 single    -0.077000000000000013	-0.013500000000000002	0.0
Created 1 atoms
create_atoms 1 single    -0.077000000000000013	-0.013000000000000001	0.0
Created 1 atoms
create_atoms 1 single    -0.077000000000000013	-0.012500000000000001	0.0
Created 1 atoms
create_atoms 1 single    -0.077000000000000013	-0.012	0.0
Created 1 atoms
create_atoms 1 single    -0.077000000000000013	-0.0115	0.0
Created 1 atoms
create_atoms 1 single    -0.077000000000000013	-0.010999999999999999	0.0
Created 1 atoms
create_atoms 1 single    -0.077000000000000013	-0.010499999999999999	0.0
Created 1 atoms
create_atoms 1 single    -0.077000000000000013	-0.010000000000000002	0.0
Created 1 atoms
create_atoms 1 single    -0.077000000000000013	-0.0095000000000000015	0.0
Created 1 atoms
create_atoms 1 single    -0.077000000000000013	-0.0090000000000000011	0.0
Created 1 atoms
create_atoms 1 single    -0.077000000000000013	-0.0085000000000000006	0.0
Created 1 atoms
create_atoms 1 single    -0.077000000000000013	-0.0080000000000000002	0.0
Created 1 atoms
create_atoms 1 single    -0.077000000000000013	-0.0074999999999999997	0.0
Created 1 atoms
create_atoms 1 single    -0.077000000000000013	-0.0069999999999999993	0.0
Created 1 atoms
create_atoms 1 single    -0.077000000000000013	-0.0064999999999999988	0.0
Created 1 atoms
create_atoms 1 single    -0.077000000000000013	-0.0059999999999999984	0.0
Created 1 atoms
create_atoms 1 single    -0.077000000000000013	-0.0054999999999999979	0.0
Created 1 atoms
create_atoms 1 single    -0.077000000000000013	-0.0049999999999999975	0.0
Created 1 atoms
create_atoms 1 single    -0.077000000000000013	-0.0044999999999999971	0.0
Created 1 atoms
create_atoms 1 single    -0.077000000000000013	-0.0039999999999999966	0.0
Created 1 atoms
create_atoms 1 single    -0.077000000000000013	-0.0035000000000000031	0.0
Created 1 atoms
create_atoms 1 single    -0.077000000000000013	-0.0030000000000000027	0.0
Created 1 atoms
create_atoms 1 single    -0.077000000000000013	-0.0025000000000000022	0.0
Created 1 atoms
create_atoms 1 single    -0.077000000000000013	-0.0020000000000000018	0.0
Created 1 atoms
create_atoms 1 single    -0.077000000000000013	-0.0015000000000000013	0.0
Created 1 atoms
create_atoms 1 single    -0.077000000000000013	-0.0010000000000000009	0.0
Created 1 atoms
create_atoms 1 single    -0.077000000000000013	-0.00050000000000000044	0.0
Created 1 atoms
create_atoms 1 single    -0.077000000000000013	0.0	0.0
Created 1 atoms
create_atoms 1 single    -0.077000000000000013	0.00050000000000000044	0.0
Created 1 atoms
create_atoms 1 single    -0.077000000000000013	0.0010000000000000009	0.0
Created 1 atoms
create_atoms 1 single    -0.077000000000000013	0.0015000000000000013	0.0
Created 1 atoms
create_atoms 1 single    -0.077000000000000013	0.0020000000000000018	0.0
Created 1 atoms
create_atoms 1 single    -0.077000000000000013	0.0025000000000000022	0.0
Created 1 atoms
create_atoms 1 single    -0.077000000000000013	0.0030000000000000027	0.0
Created 1 atoms
create_atoms 1 single    -0.077000000000000013	0.0035000000000000031	0.0
Created 1 atoms
create_atoms 1 single    -0.077000000000000013	0.0039999999999999966	0.0
Created 1 atoms
create_atoms 1 single    -0.077000000000000013	0.0044999999999999971	0.0
Created 1 atoms
create_atoms 1 single    -0.077000000000000013	0.0049999999999999975	0.0
Created 1 atoms
create_atoms 1 single    -0.077000000000000013	0.0054999999999999979	0.0
Created 1 atoms
create_atoms 1 single    -0.077000000000000013	0.0059999999999999984	0.0
Created 1 atoms
create_atoms 1 single    -0.077000000000000013	0.0064999999999999988	0.0
Created 1 atoms
create_atoms 1 single    -0.077000000000000013	0.0069999999999999993	0.0
Created 1 atoms
create_atoms 1 single    -0.077000000000000013	0.0074999999999999997	0.0
Created 1 atoms
create_atoms 1 single    -0.077000000000000013	0.0080000000000000002	0.0
Created 1 atoms
create_atoms 1 single    -0.077000000000000013	0.0085000000000000006	0.0
Created 1 atoms
create_atoms 1 single    -0.077000000000000013	0.0090000000000000011	0.0
Created 1 atoms
create_atoms 1 single    -0.077000000000000013	0.0095000000000000015	0.0
Created 1 atoms
create_atoms 1 single    -0.077000000000000013	0.010000000000000002	0.0
Created 1 atoms
create_atoms 1 single    -0.077000000000000013	0.010500000000000002	0.0
Created 1 atoms
create_atoms 1 single    -0.077000000000000013	0.011000000000000003	0.0
Created 1 atoms
create_atoms 1 single    -0.077000000000000013	0.011500000000000003	0.0
Created 1 atoms
create_atoms 1 single    -0.077000000000000013	0.012000000000000004	0.0
Created 1 atoms
create_atoms 1 single    -0.077000000000000013	0.012499999999999997	0.0
Created 1 atoms
create_atoms 1 single    -0.077000000000000013	0.012999999999999998	0.0
Created 1 atoms
create_atoms 1 single    -0.077000000000000013	0.013499999999999998	0.0
Created 1 atoms
create_atoms 1 single    -0.077000000000000013	0.013999999999999999	0.0
Created 1 atoms
create_atoms 1 single    -0.077000000000000013	0.014499999999999999	0.0
Created 1 atoms
create_atoms 1 single    -0.077000000000000013	0.014999999999999999	0.0
Created 1 atoms
create_atoms 1 single    -0.077000000000000013	0.0155	0.0
Created 1 atoms
create_atoms 1 single    -0.077000000000000013	0.016	0.0
Created 1 atoms
create_atoms 1 single    -0.077000000000000013	0.016500000000000001	0.0
Created 1 atoms
create_atoms 1 single    -0.077000000000000013	0.017000000000000001	0.0
Created 1 atoms
create_atoms 1 single    -0.076500000000000012	-0.018000000000000002	0.0
Created 1 atoms
create_atoms 1 single    -0.076500000000000012	-0.017500000000000002	0.0
Created 1 atoms
create_atoms 1 single    -0.076500000000000012	-0.017000000000000001	0.0
Created 1 atoms
create_atoms 1 single    -0.076500000000000012	-0.016500000000000001	0.0
Created 1 atoms
create_atoms 1 single    -0.076500000000000012	-0.016	0.0
Created 1 atoms
create_atoms 1 single    -0.076500000000000012	-0.0155	0.0
Created 1 atoms
create_atoms 1 single    -0.076500000000000012	-0.014999999999999999	0.0
Created 1 atoms
create_atoms 1 single    -0.076500000000000012	-0.014499999999999999	0.0
Created 1 atoms
create_atoms 1 single    -0.076500000000000012	-0.013999999999999999	0.0
Created 1 atoms
create_atoms 1 single    -0.076500000000000012	-0.013500000000000002	0.0
Created 1 atoms
create_atoms 1 single    -0.076500000000000012	-0.013000000000000001	0.0
Created 1 atoms
create_atoms 1 single    -0.076500000000000012	-0.012500000000000001	0.0
Created 1 atoms
create_atoms 1 single    -0.076500000000000012	-0.012	0.0
Created 1 atoms
create_atoms 1 single    -0.076500000000000012	-0.0115	0.0
Created 1 atoms
create_atoms 1 single    -0.076500000000000012	-0.010999999999999999	0.0
Created 1 atoms
create_atoms 1 single    -0.076500000000000012	-0.010499999999999999	0.0
Created 1 atoms
create_atoms 1 single    -0.076500000000000012	-0.010000000000000002	0.0
Created 1 atoms
create_atoms 1 single    -0.076500000000000012	-0.0095000000000000015	0.0
Created 1 atoms
create_atoms 1 single    -0.076500000000000012	-0.0090000000000000011	0.0
Created 1 atoms
create_atoms 1 single    -0.076500000000000012	-0.0085000000000000006	0.0
Created 1 atoms
create_atoms 1 single    -0.076500000000000012	-0.0080000000000000002	0.0
Created 1 atoms
create_atoms 1 single    -0.076500000000000012	-0.0074999999999999997	0.0
Created 1 atoms
create_atoms 1 single    -0.076500000000000012	-0.0069999999999999993	0.0
Created 1 atoms
create_atoms 1 single    -0.076500000000000012	-0.0064999999999999988	0.0
Created 1 atoms
create_atoms 1 single    -0.076500000000000012	-0.0059999999999999984	0.0
Created 1 atoms
create_atoms 1 single    -0.076500000000000012	-0.0054999999999999979	0.0
Created 1 atoms
create_atoms 1 single    -0.076500000000000012	-0.0049999999999999975	0.0
Created 1 atoms
create_atoms 1 single    -0.076500000000000012	-0.0044999999999999971	0.0
Created 1 atoms
create_atoms 1 single    -0.076500000000000012	-0.0039999999999999966	0.0
Created 1 atoms
create_atoms 1 single    -0.076500000000000012	-0.0035000000000000031	0.0
Created 1 atoms
create_atoms 1 single    -0.076500000000000012	-0.0030000000000000027	0.0
Created 1 atoms
create_atoms 1 single    -0.076500000000000012	-0.0025000000000000022	0.0
Created 1 atoms
create_atoms 1 single    -0.076500000000000012	-0.0020000000000000018	0.0
Created 1 atoms
create_atoms 1 single    -0.076500000000000012	-0.0015000000000000013	0.0
Created 1 atoms
create_atoms 1 single    -0.076500000000000012	-0.0010000000000000009	0.0
Created 1 atoms
create_atoms 1 single    -0.076500000000000012	-0.00050000000000000044	0.0
Created 1 atoms
create_atoms 1 single    -0.076500000000000012	0.0	0.0
Created 1 atoms
create_atoms 1 single    -0.076500000000000012	0.00050000000000000044	0.0
Created 1 atoms
create_atoms 1 single    -0.076500000000000012	0.0010000000000000009	0.0
Created 1 atoms
create_atoms 1 single    -0.076500000000000012	0.0015000000000000013	0.0
Created 1 atoms
create_atoms 1 single    -0.076500000000000012	0.0020000000000000018	0.0
Created 1 atoms
create_atoms 1 single    -0.076500000000000012	0.0025000000000000022	0.0
Created 1 atoms
create_atoms 1 single    -0.076500000000000012	0.0030000000000000027	0.0
Created 1 atoms
create_atoms 1 single    -0.076500000000000012	0.0035000000000000031	0.0
Created 1 atoms
create_atoms 1 single    -0.076500000000000012	0.0039999999999999966	0.0
Created 1 atoms
create_atoms 1 single    -0.076500000000000012	0.0044999999999999971	0.0
Created 1 atoms
create_atoms 1 single    -0.076500000000000012	0.0049999999999999975	0.0
Created 1 atoms
create_atoms 1 single    -0.076500000000000012	0.0054999999999999979	0.0
Created 1 atoms
create_atoms 1 single    -0.076500000000000012	0.0059999999999999984	0.0
Created 1 atoms
create_atoms 1 single    -0.076500000000000012	0.0064999999999999988	0.0
Created 1 atoms
create_atoms 1 single    -0.076500000000000012	0.0069999999999999993	0.0
Created 1 atoms
create_atoms 1 single    -0.076500000000000012	0.0074999999999999997	0.0
Created 1 atoms
create_atoms 1 single    -0.076500000000000012	0.0080000000000000002	0.0
Created 1 atoms
create_atoms 1 single    -0.076500000000000012	0.0085000000000000006	0.0
Created 1 atoms
create_atoms 1 single    -0.076500000000000012	0.0090000000000000011	0.0
Created 1 atoms
create_atoms 1 single    -0.076500000000000012	0.0095000000000000015	0.0
Created 1 atoms
create_atoms 1 single    -0.076500000000000012	0.010000000000000002	0.0
Created 1 atoms
create_atoms 1 single    -0.076500000000000012	0.010500000000000002	0.0
Created 1 atoms
create_atoms 1 single    -0.076500000000000012	0.011000000000000003	0.0
Created 1 atoms
create_atoms 1 single    -0.076500000000000012	0.011500000000000003	0.0
Created 1 atoms
create_atoms 1 single    -0.076500000000000012	0.012000000000000004	0.0
Created 1 atoms
create_atoms 1 single    -0.076500000000000012	0.012499999999999997	0.0
Created 1 atoms
create_atoms 1 single    -0.076500000000000012	0.012999999999999998	0.0
Created 1 atoms
create_atoms 1 single    -0.076500000000000012	0.013499999999999998	0.0
Created 1 atoms
create_atoms 1 single    -0.076500000000000012	0.013999999999999999	0.0
Created 1 atoms
create_atoms 1 single    -0.076500000000000012	0.014499999999999999	0.0
Created 1 atoms
create_atoms 1 single    -0.076500000000000012	0.014999999999999999	0.0
Created 1 atoms
create_atoms 1 single    -0.076500000000000012	0.0155	0.0
Created 1 atoms
create_atoms 1 single    -0.076500000000000012	0.016	0.0
Created 1 atoms
create_atoms 1 single    -0.076500000000000012	0.016500000000000001	0.0
Created 1 atoms
create_atoms 1 single    -0.076500000000000012	0.017000000000000001	0.0
Created 1 atoms
create_atoms 1 single    -0.076500000000000012	0.017500000000000002	0.0
Created 1 atoms
create_atoms 1 single    -0.076500000000000012	0.018000000000000002	0.0
Created 1 atoms
create_atoms 1 single    -0.076000000000000012	-0.019	0.0
Created 1 atoms
create_atoms 1 single    -0.076000000000000012	-0.018499999999999999	0.0
Created 1 atoms
create_atoms 1 single    -0.076000000000000012	-0.018000000000000002	0.0
Created 1 atoms
create_atoms 1 single    -0.076000000000000012	-0.017500000000000002	0.0
Created 1 atoms
create_atoms 1 single    -0.076000000000000012	-0.017000000000000001	0.0
Created 1 atoms
create_atoms 1 single    -0.076000000000000012	-0.016500000000000001	0.0
Created 1 atoms
create_atoms 1 single    -0.076000000000000012	-0.016	0.0
Created 1 atoms
create_atoms 1 single    -0.076000000000000012	-0.0155	0.0
Created 1 atoms
create_atoms 1 single    -0.076000000000000012	-0.014999999999999999	0.0
Created 1 atoms
create_atoms 1 single    -0.076000000000000012	-0.014499999999999999	0.0
Created 1 atoms
create_atoms 1 single    -0.076000000000000012	-0.013999999999999999	0.0
Created 1 atoms
create_atoms 1 single    -0.076000000000000012	-0.013500000000000002	0.0
Created 1 atoms
create_atoms 1 single    -0.076000000000000012	-0.013000000000000001	0.0
Created 1 atoms
create_atoms 1 single    -0.076000000000000012	-0.012500000000000001	0.0
Created 1 atoms
create_atoms 1 single    -0.076000000000000012	-0.012	0.0
Created 1 atoms
create_atoms 1 single    -0.076000000000000012	-0.0115	0.0
Created 1 atoms
create_atoms 1 single    -0.076000000000000012	-0.010999999999999999	0.0
Created 1 atoms
create_atoms 1 single    -0.076000000000000012	-0.010499999999999999	0.0
Created 1 atoms
create_atoms 1 single    -0.076000000000000012	-0.010000000000000002	0.0
Created 1 atoms
create_atoms 1 single    -0.076000000000000012	-0.0095000000000000015	0.0
Created 1 atoms
create_atoms 1 single    -0.076000000000000012	-0.0090000000000000011	0.0
Created 1 atoms
create_atoms 1 single    -0.076000000000000012	-0.0085000000000000006	0.0
Created 1 atoms
create_atoms 1 single    -0.076000000000000012	-0.0080000000000000002	0.0
Created 1 atoms
create_atoms 1 single    -0.076000000000000012	-0.0074999999999999997	0.0
Created 1 atoms
create_atoms 1 single    -0.076000000000000012	-0.0069999999999999993	0.0
Created 1 atoms
create_atoms 1 single    -0.076000000000000012	-0.0064999999999999988	0.0
Created 1 atoms
create_atoms 1 single    -0.076000000000000012	-0.0059999999999999984	0.0
Created 1 atoms
create_atoms 1 single    -0.076000000000000012	-0.0054999999999999979	0.0
Created 1 atoms
create_atoms 1 single    -0.076000000000000012	-0.0049999999999999975	0.0
Created 1 atoms
create_atoms 1 single    -0.076000000000000012	-0.0044999999999999971	0.0
Created 1 atoms
create_atoms 1 single    -0.076000000000000012	-0.0039999999999999966	0.0
Created 1 atoms
create_atoms 1 single    -0.076000000000000012	-0.0035000000000000031	0.0
Created 1 atoms
create_atoms 1 single    -0.076000000000000012	-0.0030000000000000027	0.0
Created 1 atoms
create_atoms 1 single    -0.076000000000000012	-0.0025000000000000022	0.0
Created 1 atoms
create_atoms 1 single    -0.076000000000000012	-0.0020000000000000018	0.0
Created 1 atoms
create_atoms 1 single    -0.076000000000000012	-0.0015000000000000013	0.0
Created 1 atoms
create_atoms 1 single    -0.076000000000000012	-0.0010000000000000009	0.0
Created 1 atoms
create_atoms 1 single    -0.076000000000000012	-0.00050000000000000044	0.0
Created 1 atoms
create_atoms 1 single    -0.076000000000000012	0.0	0.0
Created 1 atoms
create_atoms 1 single    -0.076000000000000012	0.00050000000000000044	0.0
Created 1 atoms
create_atoms 1 single    -0.076000000000000012	0.0010000000000000009	0.0
Created 1 atoms
create_atoms 1 single    -0.076000000000000012	0.0015000000000000013	0.0
Created 1 atoms
create_atoms 1 single    -0.076000000000000012	0.0020000000000000018	0.0
Created 1 atoms
create_atoms 1 single    -0.076000000000000012	0.0025000000000000022	0.0
Created 1 atoms
create_atoms 1 single    -0.076000000000000012	0.0030000000000000027	0.0
Created 1 atoms
create_atoms 1 single    -0.076000000000000012	0.0035000000000000031	0.0
Created 1 atoms
create_atoms 1 single    -0.076000000000000012	0.0039999999999999966	0.0
Created 1 atoms
create_atoms 1 single    -0.076000000000000012	0.0044999999999999971	0.0
Created 1 atoms
create_atoms 1 single    -0.076000000000000012	0.0049999999999999975	0.0
Created 1 atoms
create_atoms 1 single    -0.076000000000000012	0.0054999999999999979	0.0
Created 1 atoms
create_atoms 1 single    -0.076000000000000012	0.0059999999999999984	0.0
Created 1 atoms
create_atoms 1 single    -0.076000000000000012	0.0064999999999999988	0.0
Created 1 atoms
create_atoms 1 single    -0.076000000000000012	0.0069999999999999993	0.0
Created 1 atoms
create_atoms 1 single    -0.076000000000000012	0.0074999999999999997	0.0
Created 1 atoms
create_atoms 1 single    -0.076000000000000012	0.0080000000000000002	0.0
Created 1 atoms
create_atoms 1 single    -0.076000000000000012	0.0085000000000000006	0.0
Created 1 atoms
create_atoms 1 single    -0.076000000000000012	0.0090000000000000011	0.0
Created 1 atoms
create_atoms 1 single    -0.076000000000000012	0.0095000000000000015	0.0
Created 1 atoms
create_atoms 1 single    -0.076000000000000012	0.010000000000000002	0.0
Created 1 atoms
create_atoms 1 single    -0.076000000000000012	0.010500000000000002	0.0
Created 1 atoms
create_atoms 1 single    -0.076000000000000012	0.011000000000000003	0.0
Created 1 atoms
create_atoms 1 single    -0.076000000000000012	0.011500000000000003	0.0
Created 1 atoms
create_atoms 1 single    -0.076000000000000012	0.012000000000000004	0.0
Created 1 atoms
create_atoms 1 single    -0.076000000000000012	0.012499999999999997	0.0
Created 1 atoms
create_atoms 1 single    -0.076000000000000012	0.012999999999999998	0.0
Created 1 atoms
create_atoms 1 single    -0.076000000000000012	0.013499999999999998	0.0
Created 1 atoms
create_atoms 1 single    -0.076000000000000012	0.013999999999999999	0.0
Created 1 atoms
create_atoms 1 single    -0.076000000000000012	0.014499999999999999	0.0
Created 1 atoms
create_atoms 1 single    -0.076000000000000012	0.014999999999999999	0.0
Created 1 atoms
create_atoms 1 single    -0.076000000000000012	0.0155	0.0
Created 1 atoms
create_atoms 1 single    -0.076000000000000012	0.016	0.0
Created 1 atoms
create_atoms 1 single    -0.076000000000000012	0.016500000000000001	0.0
Created 1 atoms
create_atoms 1 single    -0.076000000000000012	0.017000000000000001	0.0
Created 1 atoms
create_atoms 1 single    -0.076000000000000012	0.017500000000000002	0.0
Created 1 atoms
create_atoms 1 single    -0.076000000000000012	0.018000000000000002	0.0
Created 1 atoms
create_atoms 1 single    -0.076000000000000012	0.018500000000000003	0.0
Created 1 atoms
create_atoms 1 single    -0.076000000000000012	0.019000000000000003	0.0
Created 1 atoms
create_atoms 1 single    -0.075500000000000012	-0.02	0.0
Created 1 atoms
create_atoms 1 single    -0.075500000000000012	-0.0195	0.0
Created 1 atoms
create_atoms 1 single    -0.075500000000000012	-0.019	0.0
Created 1 atoms
create_atoms 1 single    -0.075500000000000012	-0.018499999999999999	0.0
Created 1 atoms
create_atoms 1 single    -0.075500000000000012	-0.018000000000000002	0.0
Created 1 atoms
create_atoms 1 single    -0.075500000000000012	-0.017500000000000002	0.0
Created 1 atoms
create_atoms 1 single    -0.075500000000000012	-0.017000000000000001	0.0
Created 1 atoms
create_atoms 1 single    -0.075500000000000012	-0.016500000000000001	0.0
Created 1 atoms
create_atoms 1 single    -0.075500000000000012	-0.016	0.0
Created 1 atoms
create_atoms 1 single    -0.075500000000000012	-0.0155	0.0
Created 1 atoms
create_atoms 1 single    -0.075500000000000012	-0.014999999999999999	0.0
Created 1 atoms
create_atoms 1 single    -0.075500000000000012	-0.014499999999999999	0.0
Created 1 atoms
create_atoms 1 single    -0.075500000000000012	-0.013999999999999999	0.0
Created 1 atoms
create_atoms 1 single    -0.075500000000000012	-0.013500000000000002	0.0
Created 1 atoms
create_atoms 1 single    -0.075500000000000012	-0.013000000000000001	0.0
Created 1 atoms
create_atoms 1 single    -0.075500000000000012	-0.012500000000000001	0.0
Created 1 atoms
create_atoms 1 single    -0.075500000000000012	-0.012	0.0
Created 1 atoms
create_atoms 1 single    -0.075500000000000012	-0.0115	0.0
Created 1 atoms
create_atoms 1 single    -0.075500000000000012	-0.010999999999999999	0.0
Created 1 atoms
create_atoms 1 single    -0.075500000000000012	-0.010499999999999999	0.0
Created 1 atoms
create_atoms 1 single    -0.075500000000000012	-0.010000000000000002	0.0
Created 1 atoms
create_atoms 1 single    -0.075500000000000012	-0.0095000000000000015	0.0
Created 1 atoms
create_atoms 1 single    -0.075500000000000012	-0.0090000000000000011	0.0
Created 1 atoms
create_atoms 1 single    -0.075500000000000012	-0.0085000000000000006	0.0
Created 1 atoms
create_atoms 1 single    -0.075500000000000012	-0.0080000000000000002	0.0
Created 1 atoms
create_atoms 1 single    -0.075500000000000012	-0.0074999999999999997	0.0
Created 1 atoms
create_atoms 1 single    -0.075500000000000012	-0.0069999999999999993	0.0
Created 1 atoms
create_atoms 1 single    -0.075500000000000012	-0.0064999999999999988	0.0
Created 1 atoms
create_atoms 1 single    -0.075500000000000012	-0.0059999999999999984	0.0
Created 1 atoms
create_atoms 1 single    -0.075500000000000012	-0.0054999999999999979	0.0
Created 1 atoms
create_atoms 1 single    -0.075500000000000012	-0.0049999999999999975	0.0
Created 1 atoms
create_atoms 1 single    -0.075500000000000012	-0.0044999999999999971	0.0
Created 1 atoms
create_atoms 1 single    -0.075500000000000012	-0.0039999999999999966	0.0
Created 1 atoms
create_atoms 1 single    -0.075500000000000012	-0.0035000000000000031	0.0
Created 1 atoms
create_atoms 1 single    -0.075500000000000012	-0.0030000000000000027	0.0
Created 1 atoms
create_atoms 1 single    -0.075500000000000012	-0.0025000000000000022	0.0
Created 1 atoms
create_atoms 1 single    -0.075500000000000012	-0.0020000000000000018	0.0
Created 1 atoms
create_atoms 1 single    -0.075500000000000012	-0.0015000000000000013	0.0
Created 1 atoms
create_atoms 1 single    -0.075500000000000012	-0.0010000000000000009	0.0
Created 1 atoms
create_atoms 1 single    -0.075500000000000012	-0.00050000000000000044	0.0
Created 1 atoms
create_atoms 1 single    -0.075500000000000012	0.0	0.0
Created 1 atoms
create_atoms 1 single    -0.075500000000000012	0.00050000000000000044	0.0
Created 1 atoms
create_atoms 1 single    -0.075500000000000012	0.0010000000000000009	0.0
Created 1 atoms
create_atoms 1 single    -0.075500000000000012	0.0015000000000000013	0.0
Created 1 atoms
create_atoms 1 single    -0.075500000000000012	0.0020000000000000018	0.0
Created 1 atoms
create_atoms 1 single    -0.075500000000000012	0.0025000000000000022	0.0
Created 1 atoms
create_atoms 1 single    -0.075500000000000012	0.0030000000000000027	0.0
Created 1 atoms
create_atoms 1 single    -0.075500000000000012	0.0035000000000000031	0.0
Created 1 atoms
create_atoms 1 single    -0.075500000000000012	0.0039999999999999966	0.0
Created 1 atoms
create_atoms 1 single    -0.075500000000000012	0.0044999999999999971	0.0
Created 1 atoms
create_atoms 1 single    -0.075500000000000012	0.0049999999999999975	0.0
Created 1 atoms
create_atoms 1 single    -0.075500000000000012	0.0054999999999999979	0.0
Created 1 atoms
create_atoms 1 single    -0.075500000000000012	0.0059999999999999984	0.0
Created 1 atoms
create_atoms 1 single    -0.075500000000000012	0.0064999999999999988	0.0
Created 1 atoms
create_atoms 1 single    -0.075500000000000012	0.0069999999999999993	0.0
Created 1 atoms
create_atoms 1 single    -0.075500000000000012	0.0074999999999999997	0.0
Created 1 atoms
create_atoms 1 single    -0.075500000000000012	0.0080000000000000002	0.0
Created 1 atoms
create_atoms 1 single    -0.075500000000000012	0.0085000000000000006	0.0
Created 1 atoms
create_atoms 1 single    -0.075500000000000012	0.0090000000000000011	0.0
Created 1 atoms
create_atoms 1 single    -0.075500000000000012	0.0095000000000000015	0.0
Created 1 atoms
create_atoms 1 single    -0.075500000000000012	0.010000000000000002	0.0
Created 1 atoms
create_atoms 1 single    -0.075500000000000012	0.010500000000000002	0.0
Created 1 atoms
create_atoms 1 single    -0.075500000000000012	0.011000000000000003	0.0
Created 1 atoms
create_atoms 1 single    -0.075500000000000012	0.011500000000000003	0.0
Created 1 atoms
create_atoms 1 single    -0.075500000000000012	0.012000000000000004	0.0
Created 1 atoms
create_atoms 1 single    -0.075500000000000012	0.012499999999999997	0.0
Created 1 atoms
create_atoms 1 single    -0.075500000000000012	0.012999999999999998	0.0
Created 1 atoms
create_atoms 1 single    -0.075500000000000012	0.013499999999999998	0.0
Created 1 atoms
create_atoms 1 single    -0.075500000000000012	0.013999999999999999	0.0
Created 1 atoms
create_atoms 1 single    -0.075500000000000012	0.014499999999999999	0.0
Created 1 atoms
create_atoms 1 single    -0.075500000000000012	0.014999999999999999	0.0
Created 1 atoms
create_atoms 1 single    -0.075500000000000012	0.0155	0.0
Created 1 atoms
create_atoms 1 single    -0.075500000000000012	0.016	0.0
Created 1 atoms
create_atoms 1 single    -0.075500000000000012	0.016500000000000001	0.0
Created 1 atoms
create_atoms 1 single    -0.075500000000000012	0.017000000000000001	0.0
Created 1 atoms
create_atoms 1 single    -0.075500000000000012	0.017500000000000002	0.0
Created 1 atoms
create_atoms 1 single    -0.075500000000000012	0.018000000000000002	0.0
Created 1 atoms
create_atoms 1 single    -0.075500000000000012	0.018500000000000003	0.0
Created 1 atoms
create_atoms 1 single    -0.075500000000000012	0.019000000000000003	0.0
Created 1 atoms
create_atoms 1 single    -0.075500000000000012	0.019500000000000003	0.0
Created 1 atoms
create_atoms 1 single    -0.075500000000000012	0.019999999999999997	0.0
Created 1 atoms
create_atoms 1 single    -0.075000000000000011	-0.021000000000000001	0.0
Created 1 atoms
create_atoms 1 single    -0.075000000000000011	-0.020500000000000001	0.0
Created 1 atoms
create_atoms 1 single    -0.075000000000000011	-0.02	0.0
Created 1 atoms
create_atoms 1 single    -0.075000000000000011	-0.0195	0.0
Created 1 atoms
create_atoms 1 single    -0.075000000000000011	-0.019	0.0
Created 1 atoms
create_atoms 1 single    -0.075000000000000011	-0.018499999999999999	0.0
Created 1 atoms
create_atoms 1 single    -0.075000000000000011	-0.018000000000000002	0.0
Created 1 atoms
create_atoms 1 single    -0.075000000000000011	-0.017500000000000002	0.0
Created 1 atoms
create_atoms 1 single    -0.075000000000000011	-0.017000000000000001	0.0
Created 1 atoms
create_atoms 1 single    -0.075000000000000011	-0.016500000000000001	0.0
Created 1 atoms
create_atoms 1 single    -0.075000000000000011	-0.016	0.0
Created 1 atoms
create_atoms 1 single    -0.075000000000000011	-0.0155	0.0
Created 1 atoms
create_atoms 1 single    -0.075000000000000011	-0.014999999999999999	0.0
Created 1 atoms
create_atoms 1 single    -0.075000000000000011	-0.014499999999999999	0.0
Created 1 atoms
create_atoms 1 single    -0.075000000000000011	-0.013999999999999999	0.0
Created 1 atoms
create_atoms 1 single    -0.075000000000000011	-0.013500000000000002	0.0
Created 1 atoms
create_atoms 1 single    -0.075000000000000011	-0.013000000000000001	0.0
Created 1 atoms
create_atoms 1 single    -0.075000000000000011	-0.012500000000000001	0.0
Created 1 atoms
create_atoms 1 single    -0.075000000000000011	-0.012	0.0
Created 1 atoms
create_atoms 1 single    -0.075000000000000011	-0.0115	0.0
Created 1 atoms
create_atoms 1 single    -0.075000000000000011	-0.010999999999999999	0.0
Created 1 atoms
create_atoms 1 single    -0.075000000000000011	-0.010499999999999999	0.0
Created 1 atoms
create_atoms 1 single    -0.075000000000000011	-0.010000000000000002	0.0
Created 1 atoms
create_atoms 1 single    -0.075000000000000011	-0.0095000000000000015	0.0
Created 1 atoms
create_atoms 1 single    -0.075000000000000011	-0.0090000000000000011	0.0
Created 1 atoms
create_atoms 1 single    -0.075000000000000011	-0.0085000000000000006	0.0
Created 1 atoms
create_atoms 1 single    -0.075000000000000011	-0.0080000000000000002	0.0
Created 1 atoms
create_atoms 1 single    -0.075000000000000011	-0.0074999999999999997	0.0
Created 1 atoms
create_atoms 1 single    -0.075000000000000011	-0.0069999999999999993	0.0
Created 1 atoms
create_atoms 1 single    -0.075000000000000011	-0.0064999999999999988	0.0
Created 1 atoms
create_atoms 1 single    -0.075000000000000011	-0.0059999999999999984	0.0
Created 1 atoms
create_atoms 1 single    -0.075000000000000011	-0.0054999999999999979	0.0
Created 1 atoms
create_atoms 1 single    -0.075000000000000011	-0.0049999999999999975	0.0
Created 1 atoms
create_atoms 1 single    -0.075000000000000011	-0.0044999999999999971	0.0
Created 1 atoms
create_atoms 1 single    -0.075000000000000011	-0.0039999999999999966	0.0
Created 1 atoms
create_atoms 1 single    -0.075000000000000011	-0.0035000000000000031	0.0
Created 1 atoms
create_atoms 1 single    -0.075000000000000011	-0.0030000000000000027	0.0
Created 1 atoms
create_atoms 1 single    -0.075000000000000011	-0.0025000000000000022	0.0
Created 1 atoms
create_atoms 1 single    -0.075000000000000011	-0.0020000000000000018	0.0
Created 1 atoms
create_atoms 1 single    -0.075000000000000011	-0.0015000000000000013	0.0
Created 1 atoms
create_atoms 1 single    -0.075000000000000011	-0.0010000000000000009	0.0
Created 1 atoms
create_atoms 1 single    -0.075000000000000011	-0.00050000000000000044	0.0
Created 1 atoms
create_atoms 1 single    -0.075000000000000011	0.0	0.0
Created 1 atoms
create_atoms 1 single    -0.075000000000000011	0.00050000000000000044	0.0
Created 1 atoms
create_atoms 1 single    -0.075000000000000011	0.0010000000000000009	0.0
Created 1 atoms
create_atoms 1 single    -0.075000000000000011	0.0015000000000000013	0.0
Created 1 atoms
create_atoms 1 single    -0.075000000000000011	0.0020000000000000018	0.0
Created 1 atoms
create_atoms 1 single    -0.075000000000000011	0.0025000000000000022	0.0
Created 1 atoms
create_atoms 1 single    -0.075000000000000011	0.0030000000000000027	0.0
Created 1 atoms
create_atoms 1 single    -0.075000000000000011	0.0035000000000000031	0.0
Created 1 atoms
create_atoms 1 single    -0.075000000000000011	0.0039999999999999966	0.0
Created 1 atoms
create_atoms 1 single    -0.075000000000000011	0.0044999999999999971	0.0
Created 1 atoms
create_atoms 1 single    -0.075000000000000011	0.0049999999999999975	0.0
Created 1 atoms
create_atoms 1 single    -0.075000000000000011	0.0054999999999999979	0.0
Created 1 atoms
create_atoms 1 single    -0.075000000000000011	0.0059999999999999984	0.0
Created 1 atoms
create_atoms 1 single    -0.075000000000000011	0.0064999999999999988	0.0
Created 1 atoms
create_atoms 1 single    -0.075000000000000011	0.0069999999999999993	0.0
Created 1 atoms
create_atoms 1 single    -0.075000000000000011	0.0074999999999999997	0.0
Created 1 atoms
create_atoms 1 single    -0.075000000000000011	0.0080000000000000002	0.0
Created 1 atoms
create_atoms 1 single    -0.075000000000000011	0.0085000000000000006	0.0
Created 1 atoms
create_atoms 1 single    -0.075000000000000011	0.0090000000000000011	0.0
Created 1 atoms
create_atoms 1 single    -0.075000000000000011	0.0095000000000000015	0.0
Created 1 atoms
create_atoms 1 single    -0.075000000000000011	0.010000000000000002	0.0
Created 1 atoms
create_atoms 1 single    -0.075000000000000011	0.010500000000000002	0.0
Created 1 atoms
create_atoms 1 single    -0.075000000000000011	0.011000000000000003	0.0
Created 1 atoms
create_atoms 1 single    -0.075000000000000011	0.011500000000000003	0.0
Created 1 atoms
create_atoms 1 single    -0.075000000000000011	0.012000000000000004	0.0
Created 1 atoms
create_atoms 1 single    -0.075000000000000011	0.012499999999999997	0.0
Created 1 atoms
create_atoms 1 single    -0.075000000000000011	0.012999999999999998	0.0
Created 1 atoms
create_atoms 1 single    -0.075000000000000011	0.013499999999999998	0.0
Created 1 atoms
create_atoms 1 single    -0.075000000000000011	0.013999999999999999	0.0
Created 1 atoms
create_atoms 1 single    -0.075000000000000011	0.014499999999999999	0.0
Created 1 atoms
create_atoms 1 single    -0.075000000000000011	0.014999999999999999	0.0
Created 1 atoms
create_atoms 1 single    -0.075000000000000011	0.0155	0.0
Created 1 atoms
create_atoms 1 single    -0.075000000000000011	0.016	0.0
Created 1 atoms
create_atoms 1 single    -0.075000000000000011	0.016500000000000001	0.0
Created 1 atoms
create_atoms 1 single    -0.075000000000000011	0.017000000000000001	0.0
Created 1 atoms
create_atoms 1 single    -0.075000000000000011	0.017500000000000002	0.0
Created 1 atoms
create_atoms 1 single    -0.075000000000000011	0.018000000000000002	0.0
Created 1 atoms
create_atoms 1 single    -0.075000000000000011	0.018500000000000003	0.0
Created 1 atoms
create_atoms 1 single    -0.075000000000000011	0.019000000000000003	0.0
Created 1 atoms
create_atoms 1 single    -0.075000000000000011	0.019500000000000003	0.0
Created 1 atoms
create_atoms 1 single    -0.075000000000000011	0.019999999999999997	0.0
Created 1 atoms
create_atoms 1 single    -0.075000000000000011	0.020499999999999997	0.0
Created 1 atoms
create_atoms 1 single    -0.075000000000000011	0.020999999999999998	0.0
Created 1 atoms
create_atoms 1 single    -0.074500000000000011	-0.021500000000000002	0.0
Created 1 atoms
create_atoms 1 single    -0.074500000000000011	-0.021000000000000001	0.0
Created 1 atoms
create_atoms 1 single    -0.074500000000000011	-0.020500000000000001	0.0
Created 1 atoms
create_atoms 1 single    -0.074500000000000011	-0.02	0.0
Created 1 atoms
create_atoms 1 single    -0.074500000000000011	-0.0195	0.0
Created 1 atoms
create_atoms 1 single    -0.074500000000000011	-0.019	0.0
Created 1 atoms
create_atoms 1 single    -0.074500000000000011	-0.018499999999999999	0.0
Created 1 atoms
create_atoms 1 single    -0.074500000000000011	-0.018000000000000002	0.0
Created 1 atoms
create_atoms 1 single    -0.074500000000000011	-0.017500000000000002	0.0
Created 1 atoms
create_atoms 1 single    -0.074500000000000011	-0.017000000000000001	0.0
Created 1 atoms
create_atoms 1 single    -0.074500000000000011	-0.016500000000000001	0.0
Created 1 atoms
create_atoms 1 single    -0.074500000000000011	-0.016	0.0
Created 1 atoms
create_atoms 1 single    -0.074500000000000011	-0.0155	0.0
Created 1 atoms
create_atoms 1 single    -0.074500000000000011	-0.014999999999999999	0.0
Created 1 atoms
create_atoms 1 single    -0.074500000000000011	-0.014499999999999999	0.0
Created 1 atoms
create_atoms 1 single    -0.074500000000000011	-0.013999999999999999	0.0
Created 1 atoms
create_atoms 1 single    -0.074500000000000011	-0.013500000000000002	0.0
Created 1 atoms
create_atoms 1 single    -0.074500000000000011	-0.013000000000000001	0.0
Created 1 atoms
create_atoms 1 single    -0.074500000000000011	-0.012500000000000001	0.0
Created 1 atoms
create_atoms 1 single    -0.074500000000000011	-0.012	0.0
Created 1 atoms
create_atoms 1 single    -0.074500000000000011	-0.0115	0.0
Created 1 atoms
create_atoms 1 single    -0.074500000000000011	-0.010999999999999999	0.0
Created 1 atoms
create_atoms 1 single    -0.074500000000000011	-0.010499999999999999	0.0
Created 1 atoms
create_atoms 1 single    -0.074500000000000011	-0.010000000000000002	0.0
Created 1 atoms
create_atoms 1 single    -0.074500000000000011	-0.0095000000000000015	0.0
Created 1 atoms
create_atoms 1 single    -0.074500000000000011	-0.0090000000000000011	0.0
Created 1 atoms
create_atoms 1 single    -0.074500000000000011	-0.0085000000000000006	0.0
Created 1 atoms
create_atoms 1 single    -0.074500000000000011	-0.0080000000000000002	0.0
Created 1 atoms
create_atoms 1 single    -0.074500000000000011	-0.0074999999999999997	0.0
Created 1 atoms
create_atoms 1 single    -0.074500000000000011	-0.0069999999999999993	0.0
Created 1 atoms
create_atoms 1 single    -0.074500000000000011	-0.0064999999999999988	0.0
Created 1 atoms
create_atoms 1 single    -0.074500000000000011	-0.0059999999999999984	0.0
Created 1 atoms
create_atoms 1 single    -0.074500000000000011	-0.0054999999999999979	0.0
Created 1 atoms
create_atoms 1 single    -0.074500000000000011	-0.0049999999999999975	0.0
Created 1 atoms
create_atoms 1 single    -0.074500000000000011	-0.0044999999999999971	0.0
Created 1 atoms
create_atoms 1 single    -0.074500000000000011	-0.0039999999999999966	0.0
Created 1 atoms
create_atoms 1 single    -0.074500000000000011	-0.0035000000000000031	0.0
Created 1 atoms
create_atoms 1 single    -0.074500000000000011	-0.0030000000000000027	0.0
Created 1 atoms
create_atoms 1 single    -0.074500000000000011	-0.0025000000000000022	0.0
Created 1 atoms
create_atoms 1 single    -0.074500000000000011	-0.0020000000000000018	0.0
Created 1 atoms
create_atoms 1 single    -0.074500000000000011	-0.0015000000000000013	0.0
Created 1 atoms
create_atoms 1 single    -0.074500000000000011	-0.0010000000000000009	0.0
Created 1 atoms
create_atoms 1 single    -0.074500000000000011	-0.00050000000000000044	0.0
Created 1 atoms
create_atoms 1 single    -0.074500000000000011	0.0	0.0
Created 1 atoms
create_atoms 1 single    -0.074500000000000011	0.00050000000000000044	0.0
Created 1 atoms
create_atoms 1 single    -0.074500000000000011	0.0010000000000000009	0.0
Created 1 atoms
create_atoms 1 single    -0.074500000000000011	0.0015000000000000013	0.0
Created 1 atoms
create_atoms 1 single    -0.074500000000000011	0.0020000000000000018	0.0
Created 1 atoms
create_atoms 1 single    -0.074500000000000011	0.0025000000000000022	0.0
Created 1 atoms
create_atoms 1 single    -0.074500000000000011	0.0030000000000000027	0.0
Created 1 atoms
create_atoms 1 single    -0.074500000000000011	0.0035000000000000031	0.0
Created 1 atoms
create_atoms 1 single    -0.074500000000000011	0.0039999999999999966	0.0
Created 1 atoms
create_atoms 1 single    -0.074500000000000011	0.0044999999999999971	0.0
Created 1 atoms
create_atoms 1 single    -0.074500000000000011	0.0049999999999999975	0.0
Created 1 atoms
create_atoms 1 single    -0.074500000000000011	0.0054999999999999979	0.0
Created 1 atoms
create_atoms 1 single    -0.074500000000000011	0.0059999999999999984	0.0
Created 1 atoms
create_atoms 1 single    -0.074500000000000011	0.0064999999999999988	0.0
Created 1 atoms
create_atoms 1 single    -0.074500000000000011	0.0069999999999999993	0.0
Created 1 atoms
create_atoms 1 single    -0.074500000000000011	0.0074999999999999997	0.0
Created 1 atoms
create_atoms 1 single    -0.074500000000000011	0.0080000000000000002	0.0
Created 1 atoms
create_atoms 1 single    -0.074500000000000011	0.0085000000000000006	0.0
Created 1 atoms
create_atoms 1 single    -0.074500000000000011	0.0090000000000000011	0.0
Created 1 atoms
create_atoms 1 single    -0.074500000000000011	0.0095000000000000015	0.0
Created 1 atoms
create_atoms 1 single    -0.074500000000000011	0.010000000000000002	0.0
Created 1 atoms
create_atoms 1 single    -0.074500000000000011	0.010500000000000002	0.0
Created 1 atoms
create_atoms 1 single    -0.074500000000000011	0.011000000000000003	0.0
Created 1 atoms
create_atoms 1 single    -0.074500000000000011	0.011500000000000003	0.0
Created 1 atoms
create_atoms 1 single    -0.074500000000000011	0.012000000000000004	0.0
Created 1 atoms
create_atoms 1 single    -0.074500000000000011	0.012499999999999997	0.0
Created 1 atoms
create_atoms 1 single    -0.074500000000000011	0.012999999999999998	0.0
Created 1 atoms
create_atoms 1 single    -0.074500000000000011	0.013499999999999998	0.0
Created 1 atoms
create_atoms 1 single    -0.074500000000000011	0.013999999999999999	0.0
Created 1 atoms
create_atoms 1 single    -0.074500000000000011	0.014499999999999999	0.0
Created 1 atoms
create_atoms 1 single    -0.074500000000000011	0.014999999999999999	0.0
Created 1 atoms
create_atoms 1 single    -0.074500000000000011	0.0155	0.0
Created 1 atoms
create_atoms 1 single    -0.074500000000000011	0.016	0.0
Created 1 atoms
create_atoms 1 single    -0.074500000000000011	0.016500000000000001	0.0
Created 1 atoms
create_atoms 1 single    -0.074500000000000011	0.017000000000000001	0.0
Created 1 atoms
create_atoms 1 single    -0.074500000000000011	0.017500000000000002	0.0
Created 1 atoms
create_atoms 1 single    -0.074500000000000011	0.018000000000000002	0.0
Created 1 atoms
create_atoms 1 single    -0.074500000000000011	0.018500000000000003	0.0
Created 1 atoms
create_atoms 1 single    -0.074500000000000011	0.019000000000000003	0.0
Created 1 atoms
create_atoms 1 single    -0.074500000000000011	0.019500000000000003	0.0
Created 1 atoms
create_atoms 1 single    -0.074500000000000011	0.019999999999999997	0.0
Created 1 atoms
create_atoms 1 single    -0.074500000000000011	0.020499999999999997	0.0
Created 1 atoms
create_atoms 1 single    -0.074500000000000011	0.020999999999999998	0.0
Created 1 atoms
create_atoms 1 single    -0.074500000000000011	0.021499999999999998	0.0
Created 1 atoms
create_atoms 1 single    -0.07400000000000001	-0.022499999999999999	0.0
Created 1 atoms
create_atoms 1 single    -0.07400000000000001	-0.021999999999999999	0.0
Created 1 atoms
create_atoms 1 single    -0.07400000000000001	-0.021500000000000002	0.0
Created 1 atoms
create_atoms 1 single    -0.07400000000000001	-0.021000000000000001	0.0
Created 1 atoms
create_atoms 1 single    -0.07400000000000001	-0.020500000000000001	0.0
Created 1 atoms
create_atoms 1 single    -0.07400000000000001	-0.02	0.0
Created 1 atoms
create_atoms 1 single    -0.07400000000000001	-0.0195	0.0
Created 1 atoms
create_atoms 1 single    -0.07400000000000001	-0.019	0.0
Created 1 atoms
create_atoms 1 single    -0.07400000000000001	-0.018499999999999999	0.0
Created 1 atoms
create_atoms 1 single    -0.07400000000000001	-0.018000000000000002	0.0
Created 1 atoms
create_atoms 1 single    -0.07400000000000001	-0.017500000000000002	0.0
Created 1 atoms
create_atoms 1 single    -0.07400000000000001	-0.017000000000000001	0.0
Created 1 atoms
create_atoms 1 single    -0.07400000000000001	-0.016500000000000001	0.0
Created 1 atoms
create_atoms 1 single    -0.07400000000000001	-0.016	0.0
Created 1 atoms
create_atoms 1 single    -0.07400000000000001	-0.0155	0.0
Created 1 atoms
create_atoms 1 single    -0.07400000000000001	-0.014999999999999999	0.0
Created 1 atoms
create_atoms 1 single    -0.07400000000000001	-0.014499999999999999	0.0
Created 1 atoms
create_atoms 1 single    -0.07400000000000001	-0.013999999999999999	0.0
Created 1 atoms
create_atoms 1 single    -0.07400000000000001	-0.013500000000000002	0.0
Created 1 atoms
create_atoms 1 single    -0.07400000000000001	-0.013000000000000001	0.0
Created 1 atoms
create_atoms 1 single    -0.07400000000000001	-0.012500000000000001	0.0
Created 1 atoms
create_atoms 1 single    -0.07400000000000001	-0.012	0.0
Created 1 atoms
create_atoms 1 single    -0.07400000000000001	-0.0115	0.0
Created 1 atoms
create_atoms 1 single    -0.07400000000000001	-0.010999999999999999	0.0
Created 1 atoms
create_atoms 1 single    -0.07400000000000001	-0.010499999999999999	0.0
Created 1 atoms
create_atoms 1 single    -0.07400000000000001	-0.010000000000000002	0.0
Created 1 atoms
create_atoms 1 single    -0.07400000000000001	-0.0095000000000000015	0.0
Created 1 atoms
create_atoms 1 single    -0.07400000000000001	-0.0090000000000000011	0.0
Created 1 atoms
create_atoms 1 single    -0.07400000000000001	-0.0085000000000000006	0.0
Created 1 atoms
create_atoms 1 single    -0.07400000000000001	-0.0080000000000000002	0.0
Created 1 atoms
create_atoms 1 single    -0.07400000000000001	-0.0074999999999999997	0.0
Created 1 atoms
create_atoms 1 single    -0.07400000000000001	-0.0069999999999999993	0.0
Created 1 atoms
create_atoms 1 single    -0.07400000000000001	-0.0064999999999999988	0.0
Created 1 atoms
create_atoms 1 single    -0.07400000000000001	-0.0059999999999999984	0.0
Created 1 atoms
create_atoms 1 single    -0.07400000000000001	-0.0054999999999999979	0.0
Created 1 atoms
create_atoms 1 single    -0.07400000000000001	-0.0049999999999999975	0.0
Created 1 atoms
create_atoms 1 single    -0.07400000000000001	-0.0044999999999999971	0.0
Created 1 atoms
create_atoms 1 single    -0.07400000000000001	-0.0039999999999999966	0.0
Created 1 atoms
create_atoms 1 single    -0.07400000000000001	-0.0035000000000000031	0.0
Created 1 atoms
create_atoms 1 single    -0.07400000000000001	-0.0030000000000000027	0.0
Created 1 atoms
create_atoms 1 single    -0.07400000000000001	-0.0025000000000000022	0.0
Created 1 atoms
create_atoms 1 single    -0.07400000000000001	-0.0020000000000000018	0.0
Created 1 atoms
create_atoms 1 single    -0.07400000000000001	-0.0015000000000000013	0.0
Created 1 atoms
create_atoms 1 single    -0.07400000000000001	-0.0010000000000000009	0.0
Created 1 atoms
create_atoms 1 single    -0.07400000000000001	-0.00050000000000000044	0.0
Created 1 atoms
create_atoms 1 single    -0.07400000000000001	0.0	0.0
Created 1 atoms
create_atoms 1 single    -0.07400000000000001	0.00050000000000000044	0.0
Created 1 atoms
create_atoms 1 single    -0.07400000000000001	0.0010000000000000009	0.0
Created 1 atoms
create_atoms 1 single    -0.07400000000000001	0.0015000000000000013	0.0
Created 1 atoms
create_atoms 1 single    -0.07400000000000001	0.0020000000000000018	0.0
Created 1 atoms
create_atoms 1 single    -0.07400000000000001	0.0025000000000000022	0.0
Created 1 atoms
create_atoms 1 single    -0.07400000000000001	0.0030000000000000027	0.0
Created 1 atoms
create_atoms 1 single    -0.07400000000000001	0.0035000000000000031	0.0
Created 1 atoms
create_atoms 1 single    -0.07400000000000001	0.0039999999999999966	0.0
Created 1 atoms
create_atoms 1 single    -0.07400000000000001	0.0044999999999999971	0.0
Created 1 atoms
create_atoms 1 single    -0.07400000000000001	0.0049999999999999975	0.0
Created 1 atoms
create_atoms 1 single    -0.07400000000000001	0.0054999999999999979	0.0
Created 1 atoms
create_atoms 1 single    -0.07400000000000001	0.0059999999999999984	0.0
Created 1 atoms
create_atoms 1 single    -0.07400000000000001	0.0064999999999999988	0.0
Created 1 atoms
create_atoms 1 single    -0.07400000000000001	0.0069999999999999993	0.0
Created 1 atoms
create_atoms 1 single    -0.07400000000000001	0.0074999999999999997	0.0
Created 1 atoms
create_atoms 1 single    -0.07400000000000001	0.0080000000000000002	0.0
Created 1 atoms
create_atoms 1 single    -0.07400000000000001	0.0085000000000000006	0.0
Created 1 atoms
create_atoms 1 single    -0.07400000000000001	0.0090000000000000011	0.0
Created 1 atoms
create_atoms 1 single    -0.07400000000000001	0.0095000000000000015	0.0
Created 1 atoms
create_atoms 1 single    -0.07400000000000001	0.010000000000000002	0.0
Created 1 atoms
create_atoms 1 single    -0.07400000000000001	0.010500000000000002	0.0
Created 1 atoms
create_atoms 1 single    -0.07400000000000001	0.011000000000000003	0.0
Created 1 atoms
create_atoms 1 single    -0.07400000000000001	0.011500000000000003	0.0
Created 1 atoms
create_atoms 1 single    -0.07400000000000001	0.012000000000000004	0.0
Created 1 atoms
create_atoms 1 single    -0.07400000000000001	0.012499999999999997	0.0
Created 1 atoms
create_atoms 1 single    -0.07400000000000001	0.012999999999999998	0.0
Created 1 atoms
create_atoms 1 single    -0.07400000000000001	0.013499999999999998	0.0
Created 1 atoms
create_atoms 1 single    -0.07400000000000001	0.013999999999999999	0.0
Created 1 atoms
create_atoms 1 single    -0.07400000000000001	0.014499999999999999	0.0
Created 1 atoms
create_atoms 1 single    -0.07400000000000001	0.014999999999999999	0.0
Created 1 atoms
create_atoms 1 single    -0.07400000000000001	0.0155	0.0
Created 1 atoms
create_atoms 1 single    -0.07400000000000001	0.016	0.0
Created 1 atoms
create_atoms 1 single    -0.07400000000000001	0.016500000000000001	0.0
Created 1 atoms
create_atoms 1 single    -0.07400000000000001	0.017000000000000001	0.0
Created 1 atoms
create_atoms 1 single    -0.07400000000000001	0.017500000000000002	0.0
Created 1 atoms
create_atoms 1 single    -0.07400000000000001	0.018000000000000002	0.0
Created 1 atoms
create_atoms 1 single    -0.07400000000000001	0.018500000000000003	0.0
Created 1 atoms
create_atoms 1 single    -0.07400000000000001	0.019000000000000003	0.0
Created 1 atoms
create_atoms 1 single    -0.07400000000000001	0.019500000000000003	0.0
Created 1 atoms
create_atoms 1 single    -0.07400000000000001	0.019999999999999997	0.0
Created 1 atoms
create_atoms 1 single    -0.07400000000000001	0.020499999999999997	0.0
Created 1 atoms
create_atoms 1 single    -0.07400000000000001	0.020999999999999998	0.0
Created 1 atoms
create_atoms 1 single    -0.07400000000000001	0.021499999999999998	0.0
Created 1 atoms
create_atoms 1 single    -0.07400000000000001	0.021999999999999999	0.0
Created 1 atoms
create_atoms 1 single    -0.07400000000000001	0.022499999999999999	0.0
Created 1 atoms
create_atoms 1 single    -0.07350000000000001	-0.023	0.0
Created 1 atoms
create_atoms 1 single    -0.07350000000000001	-0.022499999999999999	0.0
Created 1 atoms
create_atoms 1 single    -0.07350000000000001	-0.021999999999999999	0.0
Created 1 atoms
create_atoms 1 single    -0.07350000000000001	-0.021500000000000002	0.0
Created 1 atoms
create_atoms 1 single    -0.07350000000000001	-0.021000000000000001	0.0
Created 1 atoms
create_atoms 1 single    -0.07350000000000001	-0.020500000000000001	0.0
Created 1 atoms
create_atoms 1 single    -0.07350000000000001	-0.02	0.0
Created 1 atoms
create_atoms 1 single    -0.07350000000000001	-0.0195	0.0
Created 1 atoms
create_atoms 1 single    -0.07350000000000001	-0.019	0.0
Created 1 atoms
create_atoms 1 single    -0.07350000000000001	-0.018499999999999999	0.0
Created 1 atoms
create_atoms 1 single    -0.07350000000000001	-0.018000000000000002	0.0
Created 1 atoms
create_atoms 1 single    -0.07350000000000001	-0.017500000000000002	0.0
Created 1 atoms
create_atoms 1 single    -0.07350000000000001	-0.017000000000000001	0.0
Created 1 atoms
create_atoms 1 single    -0.07350000000000001	-0.016500000000000001	0.0
Created 1 atoms
create_atoms 1 single    -0.07350000000000001	-0.016	0.0
Created 1 atoms
create_atoms 1 single    -0.07350000000000001	-0.0155	0.0
Created 1 atoms
create_atoms 1 single    -0.07350000000000001	-0.014999999999999999	0.0
Created 1 atoms
create_atoms 1 single    -0.07350000000000001	-0.014499999999999999	0.0
Created 1 atoms
create_atoms 1 single    -0.07350000000000001	-0.013999999999999999	0.0
Created 1 atoms
create_atoms 1 single    -0.07350000000000001	-0.013500000000000002	0.0
Created 1 atoms
[...]
Created 1 atoms
create_atoms 1 single    -0.061499999999999999	-0.022499999999999999	0.0
Created 1 atoms
create_atoms 1 single    -0.061499999999999999	-0.021999999999999999	0.0
Created 1 atoms
create_atoms 1 single    -0.061499999999999999	0.021999999999999999	0.0
Created 1 atoms
create_atoms 1 single    -0.061499999999999999	0.022499999999999999	0.0
Created 1 atoms
create_atoms 1 single    -0.061499999999999999	0.023	0.0
Created 1 atoms
create_atoms 1 single    -0.061499999999999999	0.0235	0.0
Created 1 atoms
create_atoms 1 single    -0.061499999999999999	0.024	0.0
Created 1 atoms
create_atoms 1 single    -0.061499999999999999	0.024500000000000001	0.0
Created 1 atoms
create_atoms 1 single    -0.061499999999999999	0.025000000000000001	0.0
Created 1 atoms
create_atoms 1 single    -0.061499999999999999	0.025500000000000002	0.0
Created 1 atoms
create_atoms 1 single    -0.061499999999999999	0.026000000000000002	0.0
Created 1 atoms
create_atoms 1 single    -0.061499999999999999	0.026500000000000003	0.0
Created 1 atoms
create_atoms 1 single    -0.061499999999999999	0.027000000000000003	0.0
Created 1 atoms
create_atoms 1 single    -0.061499999999999999	0.027500000000000004	0.0
Created 1 atoms
create_atoms 1 single    -0.061499999999999999	0.028000000000000004	0.0
Created 1 atoms
create_atoms 1 single    -0.061499999999999999	0.028500000000000004	0.0
Created 1 atoms
create_atoms 1 single    -0.061499999999999999	0.029000000000000005	0.0
Created 1 atoms
create_atoms 1 single    -0.061499999999999999	0.029500000000000005	0.0
Created 1 atoms
create_atoms 1 single    -0.061499999999999999	0.030000000000000006	0.0
Created 1 atoms
create_atoms 1 single    -0.061499999999999999	0.030500000000000006	0.0
Created 1 atoms
create_atoms 1 single    -0.061499999999999999	0.031000000000000007	0.0
Created 1 atoms
create_atoms 1 single    -0.061499999999999999	0.031500000000000007	0.0
Created 1 atoms
create_atoms 1 single    -0.061499999999999999	0.032000000000000008	0.0
Created 1 atoms
create_atoms 1 single    -0.061499999999999999	0.032499999999999994	0.0
Created 1 atoms
create_atoms 1 single    -0.061499999999999999	0.032999999999999995	0.0
Created 1 atoms
create_atoms 1 single    -0.061499999999999999	0.033499999999999995	0.0
Created 1 atoms
create_atoms 1 single    -0.061499999999999999	0.033999999999999996	0.0
Created 1 atoms
create_atoms 1 single    -0.060999999999999999	-0.034500000000000003	0.0
Created 1 atoms
create_atoms 1 single    -0.060999999999999999	-0.034000000000000002	0.0
Created 1 atoms
create_atoms 1 single    -0.060999999999999999	-0.033500000000000002	0.0
Created 1 atoms
create_atoms 1 single    -0.060999999999999999	-0.033000000000000002	0.0
Created 1 atoms
create_atoms 1 single    -0.060999999999999999	-0.032500000000000001	0.0
Created 1 atoms
create_atoms 1 single    -0.060999999999999999	-0.032000000000000001	0.0
Created 1 atoms
create_atoms 1 single    -0.060999999999999999	-0.0315	0.0
Created 1 atoms
create_atoms 1 single    -0.060999999999999999	-0.031	0.0
Created 1 atoms
create_atoms 1 single    -0.060999999999999999	-0.030499999999999999	0.0
Created 1 atoms
create_atoms 1 single    -0.060999999999999999	-0.029999999999999999	0.0
Created 1 atoms
create_atoms 1 single    -0.060999999999999999	-0.029499999999999998	0.0
Created 1 atoms
create_atoms 1 single    -0.060999999999999999	-0.029000000000000001	0.0
Created 1 atoms
create_atoms 1 single    -0.060999999999999999	-0.028500000000000001	0.0
Created 1 atoms
create_atoms 1 single    -0.060999999999999999	-0.028000000000000001	0.0
Created 1 atoms
create_atoms 1 single    -0.060999999999999999	-0.0275	0.0
Created 1 atoms
create_atoms 1 single    -0.060999999999999999	-0.027	0.0
Created 1 atoms
create_atoms 1 single    -0.060999999999999999	-0.026500000000000003	0.0
Created 1 atoms
create_atoms 1 single    -0.060999999999999999	-0.026000000000000002	0.0
Created 1 atoms
create_atoms 1 single    -0.060999999999999999	-0.025500000000000002	0.0
Created 1 atoms
create_atoms 1 single    -0.060999999999999999	-0.025000000000000001	0.0
Created 1 atoms
create_atoms 1 single    -0.060999999999999999	-0.024500000000000001	0.0
Created 1 atoms
create_atoms 1 single    -0.060999999999999999	-0.024	0.0
Created 1 atoms
create_atoms 1 single    -0.060999999999999999	-0.0235	0.0
Created 1 atoms
create_atoms 1 single    -0.060999999999999999	-0.023	0.0
Created 1 atoms
create_atoms 1 single    -0.060999999999999999	-0.022499999999999999	0.0
Created 1 atoms
create_atoms 1 single    -0.060999999999999999	0.022499999999999999	0.0
Created 1 atoms
create_atoms 1 single    -0.060999999999999999	0.023	0.0
Created 1 atoms
create_atoms 1 single    -0.060999999999999999	0.0235	0.0
Created 1 atoms
create_atoms 1 single    -0.060999999999999999	0.024	0.0
Created 1 atoms
create_atoms 1 single    -0.060999999999999999	0.024500000000000001	0.0
Created 1 atoms
create_atoms 1 single    -0.060999999999999999	0.025000000000000001	0.0
Created 1 atoms
create_atoms 1 single    -0.060999999999999999	0.025500000000000002	0.0
Created 1 atoms
create_atoms 1 single    -0.060999999999999999	0.026000000000000002	0.0
Created 1 atoms
create_atoms 1 single    -0.060999999999999999	0.026500000000000003	0.0
Created 1 atoms
create_atoms 1 single    -0.060999999999999999	0.027000000000000003	0.0
Created 1 atoms
create_atoms 1 single    -0.060999999999999999	0.027500000000000004	0.0
Created 1 atoms
create_atoms 1 single    -0.060999999999999999	0.028000000000000004	0.0
Created 1 atoms
create_atoms 1 single    -0.060999999999999999	0.028500000000000004	0.0
Created 1 atoms
create_atoms 1 single    -0.060999999999999999	0.029000000000000005	0.0
Created 1 atoms
create_atoms 1 single    -0.060999999999999999	0.029500000000000005	0.0
Created 1 atoms
create_atoms 1 single    -0.060999999999999999	0.030000000000000006	0.0
Created 1 atoms
create_atoms 1 single    -0.060999999999999999	0.030500000000000006	0.0
Created 1 atoms
create_atoms 1 single    -0.060999999999999999	0.031000000000000007	0.0
Created 1 atoms
create_atoms 1 single    -0.060999999999999999	0.031500000000000007	0.0
Created 1 atoms
create_atoms 1 single    -0.060999999999999999	0.032000000000000008	0.0
Created 1 atoms
create_atoms 1 single    -0.060999999999999999	0.032499999999999994	0.0
Created 1 atoms
create_atoms 1 single    -0.060999999999999999	0.032999999999999995	0.0
Created 1 atoms
create_atoms 1 single    -0.060999999999999999	0.033499999999999995	0.0
Created 1 atoms
create_atoms 1 single    -0.060999999999999999	0.033999999999999996	0.0
Created 1 atoms
create_atoms 1 single    -0.060999999999999999	0.034499999999999996	0.0
Created 1 atoms
create_atoms 1 single    -0.060499999999999998	-0.034500000000000003	0.0
Created 1 atoms
create_atoms 1 single    -0.060499999999999998	-0.034000000000000002	0.0
Created 1 atoms
create_atoms 1 single    -0.060499999999999998	-0.033500000000000002	0.0
Created 1 atoms
create_atoms 1 single    -0.060499999999999998	-0.033000000000000002	0.0
Created 1 atoms
create_atoms 1 single    -0.060499999999999998	-0.032500000000000001	0.0
Created 1 atoms
create_atoms 1 single    -0.060499999999999998	-0.032000000000000001	0.0
Created 1 atoms
create_atoms 1 single    -0.060499999999999998	-0.0315	0.0
Created 1 atoms
create_atoms 1 single    -0.060499999999999998	-0.031	0.0
Created 1 atoms
create_atoms 1 single    -0.060499999999999998	-0.030499999999999999	0.0
Created 1 atoms
create_atoms 1 single    -0.060499999999999998	-0.029999999999999999	0.0
Created 1 atoms
create_atoms 1 single    -0.060499999999999998	-0.029499999999999998	0.0
Created 1 atoms
create_atoms 1 single    -0.060499999999999998	-0.029000000000000001	0.0
Created 1 atoms
create_atoms 1 single    -0.060499999999999998	-0.028500000000000001	0.0
Created 1 atoms
create_atoms 1 single    -0.060499999999999998	-0.028000000000000001	0.0
Created 1 atoms
create_atoms 1 single    -0.060499999999999998	-0.0275	0.0
Created 1 atoms
create_atoms 1 single    -0.060499999999999998	-0.027	0.0
Created 1 atoms
create_atoms 1 single    -0.060499999999999998	-0.026500000000000003	0.0
Created 1 atoms
create_atoms 1 single    -0.060499999999999998	-0.026000000000000002	0.0
Created 1 atoms
create_atoms 1 single    -0.060499999999999998	-0.025500000000000002	0.0
Created 1 atoms
create_atoms 1 single    -0.060499999999999998	-0.025000000000000001	0.0
Created 1 atoms
create_atoms 1 single    -0.060499999999999998	-0.024500000000000001	0.0
Created 1 atoms
create_atoms 1 single    -0.060499999999999998	-0.024	0.0
Created 1 atoms
create_atoms 1 single    -0.060499999999999998	-0.0235	0.0
Created 1 atoms
create_atoms 1 single    -0.060499999999999998	-0.023	0.0
Created 1 atoms
create_atoms 1 single    -0.060499999999999998	0.023	0.0
Created 1 atoms
create_atoms 1 single    -0.060499999999999998	0.0235	0.0
Created 1 atoms
create_atoms 1 single    -0.060499999999999998	0.024	0.0
Created 1 atoms
create_atoms 1 single    -0.060499999999999998	0.024500000000000001	0.0
Created 1 atoms
create_atoms 1 single    -0.060499999999999998	0.025000000000000001	0.0
Created 1 atoms
create_atoms 1 single    -0.060499999999999998	0.025500000000000002	0.0
Created 1 atoms
create_atoms 1 single    -0.060499999999999998	0.026000000000000002	0.0
Created 1 atoms
create_atoms 1 single    -0.060499999999999998	0.026500000000000003	0.0
Created 1 atoms
create_atoms 1 single    -0.060499999999999998	0.027000000000000003	0.0
Created 1 atoms
create_atoms 1 single    -0.060499999999999998	0.027500000000000004	0.0
Created 1 atoms
create_atoms 1 single    -0.060499999999999998	0.028000000000000004	0.0
Created 1 atoms
create_atoms 1 single    -0.060499999999999998	0.028500000000000004	0.0
Created 1 atoms
create_atoms 1 single    -0.060499999999999998	0.029000000000000005	0.0
Created 1 atoms
create_atoms 1 single    -0.060499999999999998	0.029500000000000005	0.0
Created 1 atoms
create_atoms 1 single    -0.060499999999999998	0.030000000000000006	0.0
Created 1 atoms
create_atoms 1 single    -0.060499999999999998	0.030500000000000006	0.0
Created 1 atoms
create_atoms 1 single    -0.060499999999999998	0.031000000000000007	0.0
Created 1 atoms
create_atoms 1 single    -0.060499999999999998	0.031500000000000007	0.0
Created 1 atoms
create_atoms 1 single    -0.060499999999999998	0.032000000000000008	0.0
Created 1 atoms
create_atoms 1 single    -0.060499999999999998	0.032499999999999994	0.0
Created 1 atoms
create_atoms 1 single    -0.060499999999999998	0.032999999999999995	0.0
Created 1 atoms
create_atoms 1 single    -0.060499999999999998	0.033499999999999995	0.0
Created 1 atoms
create_atoms 1 single    -0.060499999999999998	0.033999999999999996	0.0
Created 1 atoms
create_atoms 1 single    -0.060499999999999998	0.034499999999999996	0.0
Created 1 atoms
create_atoms 1 single    -0.059999999999999998	-0.035000000000000003	0.0
Created 1 atoms
create_atoms 1 single    -0.059999999999999998	-0.034500000000000003	0.0
Created 1 atoms
create_atoms 1 single    -0.059999999999999998	-0.034000000000000002	0.0
Created 1 atoms
create_atoms 1 single    -0.059999999999999998	-0.033500000000000002	0.0
Created 1 atoms
create_atoms 1 single    -0.059999999999999998	-0.033000000000000002	0.0
Created 1 atoms
create_atoms 1 single    -0.059999999999999998	-0.032500000000000001	0.0
Created 1 atoms
create_atoms 1 single    -0.059999999999999998	-0.032000000000000001	0.0
Created 1 atoms
create_atoms 1 single    -0.059999999999999998	-0.0315	0.0
Created 1 atoms
create_atoms 1 single    -0.059999999999999998	-0.031	0.0
Created 1 atoms
create_atoms 1 single    -0.059999999999999998	-0.030499999999999999	0.0
Created 1 atoms
create_atoms 1 single    -0.059999999999999998	-0.029999999999999999	0.0
Created 1 atoms
create_atoms 1 single    -0.059999999999999998	-0.029499999999999998	0.0
Created 1 atoms
create_atoms 1 single    -0.059999999999999998	-0.029000000000000001	0.0
Created 1 atoms
create_atoms 1 single    -0.059999999999999998	-0.028500000000000001	0.0
Created 1 atoms
create_atoms 1 single    -0.059999999999999998	-0.028000000000000001	0.0
Created 1 atoms
create_atoms 1 single    -0.059999999999999998	-0.0275	0.0
Created 1 atoms
create_atoms 1 single    -0.059999999999999998	-0.027	0.0
Created 1 atoms
create_atoms 1 single    -0.059999999999999998	-0.026500000000000003	0.0
Created 1 atoms
create_atoms 1 single    -0.059999999999999998	-0.026000000000000002	0.0
Created 1 atoms
create_atoms 1 single    -0.059999999999999998	-0.025500000000000002	0.0
Created 1 atoms
create_atoms 1 single    -0.059999999999999998	-0.025000000000000001	0.0
Created 1 atoms
create_atoms 1 single    -0.059999999999999998	-0.024500000000000001	0.0
Created 1 atoms
create_atoms 1 single    -0.059999999999999998	-0.024	0.0
Created 1 atoms
create_atoms 1 single    -0.059999999999999998	-0.0235	0.0
Created 1 atoms
create_atoms 1 single    -0.059999999999999998	0.0235	0.0
Created 1 atoms
create_atoms 1 single    -0.059999999999999998	0.024	0.0
Created 1 atoms
create_atoms 1 single    -0.059999999999999998	0.024500000000000001	0.0
Created 1 atoms
create_atoms 1 single    -0.059999999999999998	0.025000000000000001	0.0
Created 1 atoms
create_atoms 1 single    -0.059999999999999998	0.025500000000000002	0.0
Created 1 atoms
create_atoms 1 single    -0.059999999999999998	0.026000000000000002	0.0
Created 1 atoms
create_atoms 1 single    -0.059999999999999998	0.026500000000000003	0.0
Created 1 atoms
create_atoms 1 single    -0.059999999999999998	0.027000000000000003	0.0
Created 1 atoms
create_atoms 1 single    -0.059999999999999998	0.027500000000000004	0.0
Created 1 atoms
create_atoms 1 single    -0.059999999999999998	0.028000000000000004	0.0
Created 1 atoms
create_atoms 1 single    -0.059999999999999998	0.028500000000000004	0.0
Created 1 atoms
create_atoms 1 single    -0.059999999999999998	0.029000000000000005	0.0
Created 1 atoms
create_atoms 1 single    -0.059999999999999998	0.029500000000000005	0.0
Created 1 atoms
create_atoms 1 single    -0.059999999999999998	0.030000000000000006	0.0
Created 1 atoms
create_atoms 1 single    -0.059999999999999998	0.030500000000000006	0.0
Created 1 atoms
create_atoms 1 single    -0.059999999999999998	0.031000000000000007	0.0
Created 1 atoms
create_atoms 1 single    -0.059999999999999998	0.031500000000000007	0.0
Created 1 atoms
create_atoms 1 single    -0.059999999999999998	0.032000000000000008	0.0
Created 1 atoms
create_atoms 1 single    -0.059999999999999998	0.032499999999999994	0.0
Created 1 atoms
create_atoms 1 single    -0.059999999999999998	0.032999999999999995	0.0
Created 1 atoms
create_atoms 1 single    -0.059999999999999998	0.033499999999999995	0.0
Created 1 atoms
create_atoms 1 single    -0.059999999999999998	0.033999999999999996	0.0
Created 1 atoms
create_atoms 1 single    -0.059999999999999998	0.034499999999999996	0.0
Created 1 atoms
create_atoms 1 single    -0.059999999999999998	0.034999999999999996	0.0
Created 1 atoms
create_atoms 1 single    -0.059499999999999997	-0.035000000000000003	0.0
Created 1 atoms
create_atoms 1 single    -0.059499999999999997	-0.034500000000000003	0.0
Created 1 atoms
create_atoms 1 single    -0.059499999999999997	-0.034000000000000002	0.0
Created 1 atoms
create_atoms 1 single    -0.059499999999999997	-0.033500000000000002	0.0
Created 1 atoms
create_atoms 1 single    -0.059499999999999997	-0.033000000000000002	0.0
Created 1 atoms
create_atoms 1 single    -0.059499999999999997	-0.032500000000000001	0.0
Created 1 atoms
create_atoms 1 single    -0.059499999999999997	-0.032000000000000001	0.0
Created 1 atoms
create_atoms 1 single    -0.059499999999999997	-0.0315	0.0
Created 1 atoms
create_atoms 1 single    -0.059499999999999997	-0.031	0.0
Created 1 atoms
create_atoms 1 single    -0.059499999999999997	-0.030499999999999999	0.0
Created 1 atoms
create_atoms 1 single    -0.059499999999999997	-0.029999999999999999	0.0
Created 1 atoms
create_atoms 1 single    -0.059499999999999997	-0.029499999999999998	0.0
Created 1 atoms
create_atoms 1 single    -0.059499999999999997	-0.029000000000000001	0.0
Created 1 atoms
create_atoms 1 single    -0.059499999999999997	-0.028500000000000001	0.0
Created 1 atoms
create_atoms 1 single    -0.059499999999999997	-0.028000000000000001	0.0
Created 1 atoms
create_atoms 1 single    -0.059499999999999997	-0.0275	0.0
Created 1 atoms
create_atoms 1 single    -0.059499999999999997	-0.027	0.0
Created 1 atoms
create_atoms 1 single    -0.059499999999999997	-0.026500000000000003	0.0
Created 1 atoms
create_atoms 1 single    -0.059499999999999997	-0.026000000000000002	0.0
Created 1 atoms
create_atoms 1 single    -0.059499999999999997	-0.025500000000000002	0.0
Created 1 atoms
create_atoms 1 single    -0.059499999999999997	-0.025000000000000001	0.0
Created 1 atoms
create_atoms 1 single    -0.059499999999999997	-0.024500000000000001	0.0
Created 1 atoms
create_atoms 1 single    -0.059499999999999997	-0.024	0.0
Created 1 atoms
create_atoms 1 single    -0.059499999999999997	0.024	0.0
Created 1 atoms
create_atoms 1 single    -0.059499999999999997	0.024500000000000001	0.0
Created 1 atoms
create_atoms 1 single    -0.059499999999999997	0.025000000000000001	0.0
Created 1 atoms
create_atoms 1 single    -0.059499999999999997	0.025500000000000002	0.0
Created 1 atoms
create_atoms 1 single    -0.059499999999999997	0.026000000000000002	0.0
Created 1 atoms
create_atoms 1 single    -0.059499999999999997	0.026500000000000003	0.0
Created 1 atoms
create_atoms 1 single    -0.059499999999999997	0.027000000000000003	0.0
Created 1 atoms
create_atoms 1 single    -0.059499999999999997	0.027500000000000004	0.0
Created 1 atoms
create_atoms 1 single    -0.059499999999999997	0.028000000000000004	0.0
Created 1 atoms
create_atoms 1 single    -0.059499999999999997	0.028500000000000004	0.0
Created 1 atoms
create_atoms 1 single    -0.059499999999999997	0.029000000000000005	0.0
Created 1 atoms
create_atoms 1 single    -0.059499999999999997	0.029500000000000005	0.0
Created 1 atoms
create_atoms 1 single    -0.059499999999999997	0.030000000000000006	0.0
Created 1 atoms
create_atoms 1 single    -0.059499999999999997	0.030500000000000006	0.0
Created 1 atoms
create_atoms 1 single    -0.059499999999999997	0.031000000000000007	0.0
Created 1 atoms
create_atoms 1 single    -0.059499999999999997	0.031500000000000007	0.0
Created 1 atoms
create_atoms 1 single    -0.059499999999999997	0.032000000000000008	0.0
Created 1 atoms
create_atoms 1 single    -0.059499999999999997	0.032499999999999994	0.0
Created 1 atoms
create_atoms 1 single    -0.059499999999999997	0.032999999999999995	0.0
Created 1 atoms
create_atoms 1 single    -0.059499999999999997	0.033499999999999995	0.0
Created 1 atoms
create_atoms 1 single    -0.059499999999999997	0.033999999999999996	0.0
Created 1 atoms
create_atoms 1 single    -0.059499999999999997	0.034499999999999996	0.0
Created 1 atoms
create_atoms 1 single    -0.059499999999999997	0.034999999999999996	0.0
Created 1 atoms
create_atoms 1 single    -0.059000000000000004	-0.035500000000000004	0.0
Created 1 atoms
create_atoms 1 single    -0.059000000000000004	-0.035000000000000003	0.0
Created 1 atoms
create_atoms 1 single    -0.059000000000000004	-0.034500000000000003	0.0
Created 1 atoms
create_atoms 1 single    -0.059000000000000004	-0.034000000000000002	0.0
Created 1 atoms
create_atoms 1 single    -0.059000000000000004	-0.033500000000000002	0.0
Created 1 atoms
create_atoms 1 single    -0.059000000000000004	-0.033000000000000002	0.0
Created 1 atoms
create_atoms 1 single    -0.059000000000000004	-0.032500000000000001	0.0
Created 1 atoms
create_atoms 1 single    -0.059000000000000004	-0.032000000000000001	0.0
Created 1 atoms
create_atoms 1 single    -0.059000000000000004	-0.0315	0.0
Created 1 atoms
create_atoms 1 single    -0.059000000000000004	-0.031	0.0
Created 1 atoms
create_atoms 1 single    -0.059000000000000004	-0.030499999999999999	0.0
Created 1 atoms
create_atoms 1 single    -0.059000000000000004	-0.029999999999999999	0.0
Created 1 atoms
create_atoms 1 single    -0.059000000000000004	-0.029499999999999998	0.0
Created 1 